
   51  0.0000000e+00
  14.3790000  48.7380000   8.4640000  14.8460000  48.5270000   9.5880000
  14.2650000  50.2320000   8.0390000  14.0010000  47.9340000   7.6080000
  14.8920000  51.2280000   9.0100000  16.4040000  51.3950000   8.8210000
  17.2380000  51.2130000  10.0960000  18.5590000  50.4660000   9.8880000
  19.6980000  51.0210000  10.7460000  20.6630000  49.9490000  11.2770000
  22.1010000  50.2000000  10.9000000  23.1780000  49.5010000  11.2140000
  23.2670000  48.2340000  12.0330000  24.2270000  48.3900000  13.1890000
  25.5060000  48.7250000  13.1590000  26.3530000  49.0420000  11.9520000
  26.4670000  50.5450000  11.6470000  26.2140000  51.0020000  10.2010000
  27.4560000  51.4190000   9.3890000  28.7620000  51.5120000  10.1830000
  13.2270000  50.4710000   7.9420000  14.8090000  50.3250000   7.1220000
  14.7110000  50.8880000  10.0080000  14.4430000  52.1800000   8.8180000
  16.5850000  52.3790000   8.4430000  16.7100000  50.6210000   8.1490000
  16.6520000  50.6650000  10.8040000  17.4930000  52.1950000  10.4360000
  18.8380000  50.5450000   8.8580000  18.4020000  49.4490000  10.1810000
  19.2700000  51.5320000  11.5830000  20.2720000  51.6680000  10.1160000
  20.3690000  49.0000000  10.8790000  20.6070000  49.9740000  12.3450000
  22.2680000  51.0340000  10.3150000  24.0730000  49.8670000  10.8540000
  23.6050000  47.4370000  11.4050000  22.2960000  48.0200000  12.4290000
  23.8330000  48.2120000  14.1260000  25.9830000  48.7760000  14.0730000
  27.3370000  48.6570000  12.1210000  25.8730000  48.5900000  11.1090000
  25.7610000  51.0520000  12.2710000  27.4950000  50.7810000  11.8290000
  25.6060000  51.9030000  10.2840000  25.7310000  50.1800000   9.6720000
  27.2530000  52.4270000   9.0290000  27.5980000  50.6890000   8.5920000
  28.5760000  51.2610000  11.2060000  29.1450000  52.5100000  10.1250000
  29.4780000  50.8310000   9.7730000
