
116175  0.0000000e+00
  74.2053224  95.6703224  38.5711663  74.6723224  95.4593224  39.6951663
  74.0913224  97.1643224  38.1461663  73.8273224  94.8663224  37.7151663
  74.7183224  98.1603224  39.1171663  76.2303224  98.3273224  38.9281663
  77.0643224  98.1453224  40.2031663  78.3853224  97.3983224  39.9951663
  79.5243224  97.9533224  40.8531663  80.4893224  96.8813224  41.3841663
  81.9273224  97.1323224  41.0071663  83.0043224  96.4333224  41.3211663
  83.0933224  95.1663224  42.1401663  84.0533224  95.3223224  43.2961663
  85.3323224  95.6573224  43.2661663  86.1793224  95.9743224  42.0591663
  86.2933224  97.4773224  41.7541663  86.0403224  97.9343224  40.3081663
  87.2823224  98.3513224  39.4961663  88.5883224  98.4443224  40.2901663
  73.0533224  97.4033224  38.0491663  74.6353224  97.2573224  37.2291663
  74.5373224  97.8203224  40.1151663  74.2693224  99.1123224  38.9251663
  76.4113224  99.3113224  38.5501663  76.5363224  97.5533224  38.2561663
  76.4783224  97.5973224  40.9111663  77.3193224  99.1273224  40.5431663
  78.6643224  97.4773224  38.9651663  78.2283224  96.3813224  40.2881663
  79.0963224  98.4643224  41.6901663  80.0983224  98.6003224  40.2231663
  80.1953224  95.9323224  40.9861663  80.4333224  96.9063224  42.4521663
  82.0943224  97.9663224  40.4221663  83.8993224  96.7993224  40.9611663
  83.4313224  94.3693224  41.5121663  82.1223224  94.9523224  42.5361663
  83.6593224  95.1443224  44.2331663  85.8093224  95.7083224  44.1801663
  87.1633224  95.5893224  42.2281663  85.6993224  95.5223224  41.2161663
  85.5873224  97.9843224  42.3781663  87.3213224  97.7133224  41.9361663
  85.4323224  98.8353224  40.3911663  85.5573224  97.1123224  39.7791663
  87.0793224  99.3593224  39.1361663  87.4243224  97.6213224  38.6991663
  88.4023224  98.1933224  41.3131663  88.9713224  99.4423224  40.2321663
  89.3043224  97.7633224  39.8801663 136.2743224  70.5743224  28.8031663
 136.3103224  69.5933224  28.9921663 136.2383224  70.7223224  27.8151663
 137.0903224  71.0153224  29.1771663 135.0843224  71.1463224  29.4241663
 134.2053224  70.6603224  28.9991663 135.0883224  70.8693224  30.9261663
 134.1993224  71.3093224  31.3791663 135.9563224  71.3433224  31.3811663
 135.1173224  69.3923224  31.2941663 135.1503224  69.2883224  32.3781663
 136.0143224  68.9323224  30.8801663 133.6793224  68.4943224  30.6791663
 132.3763224  69.2223224  31.6681663 131.4213224  68.7693224  31.4031663
 132.5813224  69.0473224  32.7251663 132.3333224  70.2953224  31.4801663
 134.9913224  72.6433224  29.1601663 135.9063224  73.3993224  29.4871663
 133.8803224  73.0663224  28.5661663 133.1473224  72.4013224  28.3631663
 133.6913224  74.4653224  28.2001663 134.4633224  74.7413224  27.4811663
 132.3263224  74.6653224  27.5391663 131.5383224  74.4693224  28.2651663
 132.2073224  73.9493224  26.7271663 132.1193224  76.0443224  26.9831663
 132.7203224  76.4253224  25.7921663 133.3483224  75.7103224  25.2601663
 132.5303224  77.6953224  25.2791663 133.0093224  77.9813224  24.3431663
 131.7353224  78.5983224  25.9511663 131.5863224  79.5993224  25.5481663
 131.1313224  78.2333224  27.1371663 130.5023224  78.9473224  27.6701663
 131.3233224  76.9653224  27.6481663 130.8463224  76.6763224  28.5851663
 133.8103224  75.3733224  29.4171663 134.0633224  76.5713224  29.2881663
 133.6253224  74.7963224  30.6001663 133.4693224  73.7993224  30.6421663
 133.6413224  75.5663224  31.8381663 132.9043224  76.3663224  31.7581663
 133.2603224  74.6803224  33.0081663 132.2943224  74.2173224  32.8141663
 133.1573224  75.2883224  33.9071663 134.2253224  73.6863224  33.2201663
 134.7073224  73.4913224  32.3641663 135.0113224  76.1863224  32.0841663
 135.2053224  76.9223224  33.0511663 135.9583224  75.8843224  31.2021663
 135.7393224  75.2573224  30.4411663 137.3043224  76.4343224  31.3051663
 137.7343224  76.1193224  32.2571663 138.1883224  75.8833224  30.1951663
 139.1903224  76.3033224  30.2861663 138.2413224  74.7983224  30.2771663
 137.7673224  76.1543224  29.2281663 137.2823224  77.9563224  31.2591663
 138.2203224  78.6143224  31.7091663 136.2063224  78.5113224  30.7121663
 135.4603224  77.9163224  30.3811663 136.0743224  79.9573224  30.5781663
 135.1673224  80.1893224  30.0211663 136.9133224  80.3473224  30.0031663
 136.0263224  80.6343224  31.9411663 136.4373224  81.7863224  32.0881663
 135.5233224  79.9133224  32.9381663 135.2103224  78.9713224  32.7531663
 135.4113224  80.4473224  34.2901663 135.1913224  79.6373224  34.9841663
 136.7283224  81.1003224  34.7241663 136.6333224  81.4633224  35.7471663
 136.9353224  81.9613224  34.0881663 137.9053224  80.1773224  34.6621663
 138.5933224  79.9273224  33.4931663 138.4403224  80.3723224  32.6101663
 139.5783224  79.0803224  33.7391663 140.2433224  78.7563224  32.9391663
 139.5523224  78.7723224  35.0221663 138.5163224  79.4443224  35.6231663
 138.3303224  79.3193224  36.6901663 134.2793224  81.4613224  34.3901663
 134.2023224  82.2283224  35.3491663 133.4003224  81.4593224  33.3931663
 133.5263224  80.8133224  32.6271663 132.2423224  82.3793224  33.3761663
 132.1243224  82.8053224  34.3731663 132.4283224  83.4963224  32.3471663
 131.7133224  84.2953224  32.5441663 132.2203224  83.1103224  31.3491663
 133.7953224  84.1203224  32.3081663 134.4183224  83.5873224  31.5911663
 134.2583224  84.0443224  33.2921663 133.7303224  85.5893224  31.9071663
 133.2653224  86.1643224  32.7081663 133.1223224  85.6943224  31.0071663
 135.1523224  86.1453224  31.6351663 135.7343224  86.1223224  32.5561663
 135.0803224  87.1803224  31.3031663 135.9283224  85.3873224  30.5921663
 136.8383224  85.8103224  30.4751663 136.0393224  84.4263224  30.8861663
 135.4293224  85.4153224  29.7141663 130.9323224  81.6933224  33.0391663
 130.8933224  80.7653224  32.2291663 129.8623224  82.2003224  33.6471663
 130.0263224  82.9323224  34.3241663 128.4823224  81.7583224  33.3891663
 128.5163224  80.7863224  32.8981663 127.6993224  81.6163224  34.7161663
 127.6483224  82.5843224  35.2141663 126.2593224  81.1143224  34.4531663
 125.7283224  81.0213224  35.4001663 125.7383224  81.8243224  33.8131663
 126.2973224  80.1423224  33.9611663 128.4503224  80.6503224  35.6521663
 129.4733224  81.0013224  35.7921663 128.5043224  79.6653224  35.1901663
 127.8013224  80.4993224  37.0361663 128.3863224  79.8043224  37.6391663
 127.7693224  81.4703224  37.5311663 126.7883224  80.1163224  36.9231663
 127.7903224  82.7703224  32.4701663 127.6903224  83.9493224  32.8121663
 127.3313224  82.3093224  31.3061663 127.5163224  81.3443224  31.0731663
 126.5763224  83.1413224  30.3611663 127.0553224  84.1193224  30.3021663
 126.5553224  82.4963224  28.9681663 126.1213224  81.4983224  29.0351663
 127.5763224  82.3853224  28.6031663 125.7643224  83.2723224  27.8961663
 126.1893224  84.2693224  27.7811663 124.7253224  83.3733224  28.2121663
 125.8073224  82.5393224  26.5181663 125.4813224  81.5073224  26.6451663
 126.8303224  82.5353224  26.1391663 124.8913224  83.2203224  25.4651663
 125.0753224  82.7813224  24.4841663 125.1253224  84.2823224  25.4131663
 123.4253224  83.0943224  25.7451663 122.9013224  83.5603224  25.0181663
 123.1693224  82.1173224  25.7701663 123.2143224  83.5203224  26.6361663
 125.1403224  83.3423224  30.8461663 124.4363224  82.3603224  31.1371663
 124.7003224  84.6003224  30.9441663 125.3253224  85.3553224  30.7001663
 123.3583224  84.9113224  31.3881663 123.4013224  85.4033224  32.3591663
 122.7953224  83.9873224  31.5201663 122.5963224  85.8083224  30.4251663
 123.1963224  86.5503224  29.6381663 121.2623224  85.7713224  30.5181663
 120.8443224  85.1103224  31.1571663 120.3903224  86.6533224  29.7271663
 121.0043224  87.4353224  29.2791663 119.6553224  85.8683224  28.5841663
 118.9853224  85.1293224  29.0231663 118.8373224  86.7953224  27.6961663
 118.3443224  86.2123224  26.9181663 118.0863224  87.3063224  28.2981663
 119.4953224  87.5313224  27.2351663 120.6233224  85.2023224  27.7761663
 121.5533224  85.3883224  28.1141663 119.3683224  87.2633224  30.6671663
 118.6373224  86.4953224  31.3471663 119.3213224  88.6093224  30.7181663
 120.0093224  89.1073224  30.1711663 118.3433224  89.3743224  31.5101663
 117.9213224  88.7153224  32.2691663 118.9723224  90.5953224  32.1911663
 119.4523224  91.2153224  31.4341663 117.9323224  91.4463224  32.8711663
 118.4143224  92.3033224  33.3431663 117.2103224  91.7973224  32.1341663
 117.4193224  90.8563224  33.6301663 119.9993224  90.1333224  33.2001663
 120.4483224  90.9993224  33.6851663 119.5163224  89.5073224  33.9501663
 120.7753224  89.5593224  32.6931663 117.2703224  89.8733224  30.5771663
 117.5963224  90.4993224  29.5641663 116.0003224  89.6283224  30.9211663
 115.8063224  89.0433224  31.7211663 114.8783224  90.1923224  30.1581663
 115.2743224  90.6643224  29.2581663 113.8833224  89.1073224  29.6201663
 113.4403224  88.5823224  30.4661663 112.7253224  89.7563224  28.8401663
 112.0503224  88.9803224  28.4781663 112.1793224  90.4343224  29.4961663
 113.1243224  90.3123224  27.9921663 114.6203224  88.0823224  28.7181663
 113.9103224  87.3393224  28.3571663 115.0673224  88.6003224  27.8691663
 115.4023224  87.5873224  29.2941663 114.1803224  91.2083224  31.0391663
 113.8283224  90.8923224  32.1941663 113.9483224  92.4033224  30.4761663
 114.2563224  92.5573224  29.5261663 113.2583224  93.4993224  31.1991663
 112.5903224  93.0593224  31.9381663 114.2703224  94.3613224  31.9471663
 114.8283224  93.7253224  32.6341663 113.7293224  95.1043224  32.5311663
 115.3233224  95.1413224  31.1521663 115.6613224  94.5403224  30.3071663
 114.7623224  96.4583224  30.5301663 115.5543224  96.9663224  29.9791663
 113.9443224  96.2203224  29.8501663 114.3973224  97.1093224  31.3241663
 116.5423224  95.4763224  32.0541663 117.2823224  96.0303224  31.4751663
 116.2143224  96.0833224  32.8981663 116.9873224  94.5523224  32.4221663
 112.4293224  94.3553224  30.2461663 112.5763224  94.2713224  29.0181663
 111.5733224  95.1783224  30.8461663 111.5573224  95.1523224  31.8561663
 110.6793224  96.0923224  30.1451663 110.9313224  96.0773224  29.0851663
 109.2023224  95.6973224  30.3611663 108.5563224  96.3963224  29.8271663
 108.9573224  95.7693224  31.4201663 108.8633224  94.2963224  29.8961663
 109.4333224  93.5723224  30.4781663 109.1393224  94.1843224  28.8481663
 107.1033224  93.8113224  30.0321663 106.3323224  94.5903224  28.5921663
 105.2673224  94.3593224  28.5801663 106.4693224  95.6713224  28.6461663
 106.7963224  94.2113224  27.6811663 110.9183224  97.4803224  30.7231663
 110.6303224  97.6893224  31.9071663 111.4103224  98.4243224  29.9001663
 112.0233224  98.2123224  28.5741663 112.7083224  97.3513224  28.5751663
 111.2563224  98.0973224  27.7941663 112.8123224  99.4883224  28.3261663
 113.8573224  99.4053224  28.6581663 112.8383224  99.7643224  27.2611663
 112.0853224 100.5653224  29.1331663 112.7663224 101.3583224  29.4761663
 111.2903224 101.0543224  28.5511663 111.4803224  99.8363224  30.3371663
 112.1363224  99.9103224  31.2171663 110.1003224 100.3863224  30.6501663
 109.1053224  99.9203224  30.0891663 110.0423224 101.3543224  31.5641663
 110.9093224 101.7343224  31.9161663 108.7843224 101.8773224  32.0671663
 108.2613224 101.0763224  32.5921663 109.0623224 102.9973224  33.0771663
 109.6923224 103.7563224  32.6141663 109.6093224 102.5923224  33.9281663
 107.8123224 103.6903224  33.6121663 107.1113224 102.9423224  33.9801663
 107.3323224 104.2483224  32.8071663 108.1473224 104.6423224  34.7351663
 108.8013224 105.4303224  34.3611663 108.6723224 104.1033224  35.5251663
 106.9023224 105.2693224  35.3101663 106.3203224 104.5103224  35.8321663
 106.2923224 105.6723224  34.5031663 107.1873224 106.3833224  36.2791663
 106.3163224 106.7593224  36.6271663 107.7323224 106.0273224  37.0521663
 107.7053224 107.1133224  35.8111663 107.7703224 102.3683224  30.9961663
 106.5553224 102.1833224  31.1701663 108.2353224 102.9333224  29.8901663
 109.2293224 103.0243224  29.7371663 107.2963224 103.4413224  28.8601663
 106.5093224 104.0093224  29.3591663 108.0003224 104.4663224  27.9351663
 108.3693224 105.3013224  28.5311663 107.2793224 104.8673224  27.2211663
 109.1873224 103.8743224  27.1441663 109.4423224 102.6663224  27.1621663
 109.9143224 104.7483224  26.4391663 110.6973224 104.4303224  25.9041663
 109.6753224 105.7183224  26.4471663 106.5183224 102.3673224  28.0361663
 105.9913224 102.6763224  26.9581663 106.4463224 101.1273224  28.5531663
 106.9383224 100.9783224  29.4221663 105.7043224  99.9943224  27.9361663
 105.3043224 100.3243224  26.9771663 106.6363224  98.7743224  27.7321663
 106.1153224  98.0103224  27.1551663 106.8843224  98.3403224  28.7011663
 107.9623224  99.0393224  27.0151663 108.6233224  98.1873224  27.1691663
 108.4343224  99.9153224  27.4591663 107.7963224  99.2783224  25.5181663
 106.6423224  99.2293224  25.0221663 108.8243224  99.5043224  24.8341663
 104.4923224  99.5053224  28.7731663 103.4973224  99.0313224  28.2241663
 104.6013224  99.6303224  30.0911663 105.4443224 100.0273224  30.4801663
 103.5343224  99.2093224  30.9911663 102.9393224  98.4473224  30.4901663
 104.1273224  98.6093224  32.2721663 103.4003224  98.7193224  33.0771663
 105.0203224  99.1733224  32.5391663 104.5163224  97.1273224  32.1941663
 103.6483224  96.5383224  31.9001663 105.5893224  96.9393224  31.1301663
 105.8663224  95.8863224  31.0751663 105.2043224  97.2643224  30.1641663
 106.4663224  97.5313224  31.3901663 105.0083224  96.6593224  33.5561663
 105.2843224  95.6063224  33.5001663 105.8783224  97.2473224  33.8501663
 104.2163224  96.7893224  34.2931663 102.6203224 100.3753224  31.3461663
 101.7253224 100.2443224  32.1811663 102.8503224 101.5173224  30.7061663
 103.5863224 101.5543224  30.0151663 102.0693224 102.7183224  30.9761663
 101.2273224 102.4473224  31.6141663 102.9183224 103.7503224  31.7211663
 102.3363224 104.6603224  31.8701663 103.7863224 104.0123224  31.1161663
 103.4183224 103.2883224  33.0821663 104.1123224 104.0323224  33.4741663
 103.9633224 102.3533224  32.9591663 102.3083224 103.0763224  34.0731663
 101.2503224 103.6253224  33.8771663 102.5183224 102.3653224  35.0271663
 101.5293224 103.3253224  29.6871663 101.3263224 104.5363224  29.5971663
 101.2983224 102.4763224  28.6911663 101.4423224 101.4883224  28.8431663
 100.8433224 102.9353224  27.3841663 100.5563224 102.0653224  26.7921663
  99.6173224 103.8553224  27.5381663  99.8863224 104.7013224  28.1701663
  99.2013224 104.4193224  26.1871663  98.3343224 105.0673224  26.3151663
 100.0243224 104.9943224  25.7641663  98.9463224 103.6003224  25.5141663
  98.4713224 103.0873224  28.1781663  97.6083224 103.7433224  28.2841663
  98.2053224 102.2373224  27.5481663  98.7773224 102.7283224  29.1611663
 101.9463224 103.6843224  26.6481663 103.1293224 103.3883224  26.8151663
 101.5523224 104.6553224  25.8311663 100.5643224 104.8183224  25.7011663
 102.5103224 105.4923224  25.1181663 103.2373224 104.8453224  24.6271663
 101.8153224 106.2893224  24.0291663 102.5103224 107.0193224  23.6131663
 100.9793224 106.8413224  24.4591663 101.3013224 105.4203224  22.9151663
 101.7923224 104.3043224  22.7051663 100.3223224 105.9083224  22.1981663
  99.9403224 105.3743224  21.4431663  99.9563224 106.8153224  22.4031663
 103.2483224 106.4213224  26.0741663 102.6443224 107.0233224  26.9611663
 104.5593224 106.5333224  25.8871663 104.4383224 105.1583224  26.2861663
 103.4423224 104.9353224  26.6961663 104.6703224 104.4883224  25.4441663
 105.4763224 104.9873224  27.3641663 105.1763224 104.2553224  28.1281663
 106.4473224 104.6543224  26.9681663 105.6053224 106.3423224  27.9721663
 104.8523224 106.5343224  28.7511663 106.5913224 106.5123224  28.4291663
 105.3993224 107.3033224  26.7961663 104.8713224 108.2183224  27.0651663
 106.7223224 107.6783224  26.1401663 107.3283224 106.8703224  25.4371663
 107.1643224 108.9093224  26.3731663 106.5923224 109.5443224  26.9111663
 108.4553224 109.3673224  25.8731663 109.0283224 108.4983224  25.5471663
 108.2653224 110.2923224  24.6681663 109.2233224 110.7353224  24.3951663
 107.5923224 111.1063224  24.9361663 107.6983224 109.5713224  23.4521663
 108.4193224 108.8173224  22.8431663 106.5493224 109.7833224  23.1441663
 109.2403224 110.0923224  26.9581663 108.7643224 111.0703224  27.5341663
 110.4463224 109.6073224  27.2321663 110.7223224 108.7203224  26.8351663
 111.3833224 110.3223224  28.0911663 111.4573224 109.8123224  29.0521663
 111.0033224 111.3253224  28.2881663 112.7613224 110.4113224  27.4501663
 112.9983224 109.8443224  26.3831663 113.6693224 111.1253224  28.1061663
 113.4053224 111.5873224  28.9651663 115.0373224 111.2603224  27.6191663
 115.0073224 111.6973224  26.6201663 115.8243224 112.1883224  28.5241663
 115.3003224 113.1393224  28.6131663 116.7973224 112.3923224  28.0781663
 115.9963224 111.6243224  29.7941663 116.5533224 110.7943224  29.7271663
 115.7293224 109.9063224  27.5401663 116.7623224 109.7633224  26.8861663
 115.1543224 108.9133224  28.2101663 114.3433224 109.1083224  28.7791663
 115.6643224 107.5483224  28.1441663 116.5813224 107.5493224  27.5541663
 116.0143224 107.0463224  29.5381663 116.3933224 106.0263224  29.4721663
 116.7773224 107.6893224  29.9751663 115.1233224 107.0623224  30.1641663
 114.6583224 106.6163224  27.4821663 114.8723224 105.4063224  27.4111663
 113.5593224 107.1863224  26.9991663 113.4403224 108.1843224  27.0951663
 112.5223224 106.4083224  26.3331663 112.2163224 105.5983224  26.9971663
 111.2973224 107.2933224  26.0361663 110.9973224 107.8013224  26.9521663
 111.6523224 108.3703224  25.0221663 110.7753224 108.9873224  24.8241663
 112.4523224 108.9953224  25.4191663 111.9823224 107.9033224  24.0941663
 110.1483224 106.4353224  25.5301663 109.2853224 107.0673224  25.3231663
 110.4503224 105.9223224  24.6171663 109.8833224 105.6983224  26.2891663
 113.0363224 105.8043224  25.0321663 113.6543224 106.4913224  24.2191663
 112.7763224 104.5153224  24.8411663 112.2983224 103.9973224  25.5641663
 113.1643224 103.8293224  23.6141663 112.8283224 102.7933224  23.6751663
 112.4893224 104.4773224  22.4021663 112.8813224 104.0323224  21.4861663
 112.7293224 105.5403224  22.3771663 110.9753224 104.3183224  22.4111663
 110.4903224 103.4763224  23.1301663 110.3183224 105.0413224  21.7001663
 114.6763224 103.8433224  23.4291663 115.1783224 103.6033224  22.3311663
 115.3963224 104.1253224  24.5091663 114.9233224 104.3873224  25.3611663
 116.8533224 104.0663224  24.4951663 117.1823224 103.8903224  23.4701663
 117.4453224 105.3793224  24.9741663 117.1453224 105.5583224  26.0071663
 117.0513224 106.1983224  24.3711663 118.9473224 105.3983224  24.8961663
 119.5973224 104.3483224  24.9541663 119.5103224 106.5723224  24.7661663
 120.5063224 106.6453224  24.7091663 118.9453224 107.3953224  24.7241663
 117.3653224 102.9063224  25.3391663 117.5303224 103.0353224  26.5521663
 117.6153224 101.7743224  24.6911663 117.4493224 101.7303224  23.6961663
 118.1293224 100.5783224  25.3881663 117.5533224 100.4363224  26.3021663
 117.9293224  99.3313224  24.5171663 118.3853224  98.4793224  25.0201663
 118.4433224  99.4833224  23.5691663 116.4853224  98.9323224  24.1831663
 116.0073224  99.7333224  23.6181663 116.4873224  97.6983224  23.2761663
 115.4603224  97.4183224  23.0411663 117.0213224  97.9263224  22.3531663
 116.9803224  96.8723224  23.7871663 115.6443224  98.6733224  25.4381663
 114.6313224  98.3953224  25.1461663 116.0913224  97.8633224  26.0151663
 115.6113224  99.5773224  26.0471663 119.6083224 100.6783224  25.8151663
 120.0403224 100.0173224  26.7671663 120.3793224 101.4993224  25.0981663
 119.9913224 101.9663224  24.2911663 121.7803224 101.7383224  25.4561663
 122.2933224 100.7763224  25.5091663 122.4933224 102.5803224  24.3801663
 123.3753224 103.0533224  24.8131663 121.8283224 103.3763224  24.0411663
 122.9193224 101.7563224  23.1831663 122.7123224 100.5363224  23.1331663
 123.5313224 102.4183224  22.2041663 123.8373224 101.9313224  21.3861663
 123.6853224 103.4023224  22.2861663 121.9723224 102.3803224  26.8331663
 123.0113224 102.1843224  27.4501663 120.9833224 103.1273224  27.3161663
 120.1653224 103.3063224  26.7521663 121.0603224 103.6983224  28.6591663
 121.9723224 104.2913224  28.7231663 119.8763224 104.6013224  28.9101663
 119.9453224 105.0203224  29.9141663 119.8733224 105.4093224  28.1781663
 118.9553224 104.0273224  28.8191663 121.1543224 102.6433224  29.7761663
 121.5883224 102.9703224  30.8811663 120.7793224 101.3873224  29.4851663
 120.4303224 101.1923224  28.5581663 120.8593224 100.2913224  30.4681663
 120.6093224 100.6903224  31.4521663 119.8363224  99.1933224  30.1311663
 120.0433224  98.3073224  30.7301663 119.9373224  98.9113224  29.0841663
 118.4083224  99.6063224  30.3741663 117.7593224  99.3003224  31.5901663
 118.3023224  98.7503224  32.3591663 116.4453224  99.6863224  31.8251663
 115.9773224  99.4683224  32.7851663 115.7283224 100.3413224  30.8601663
 114.6943224 100.6273224  31.0481663 116.3423224 100.6373224  29.6261663
 115.7833224 101.1633224  28.8521663 117.6823224 100.2533224  29.3871663
 118.1533224 100.4843224  28.4311663 122.2373224  99.6703224  30.5851663
 122.4673224  98.8063224  31.4351663 123.1553224 100.0783224  29.7121663
 122.9193224 100.7893224  29.0341663 124.5013224  99.5173224  29.7141663
 124.4533224  98.5063224  30.1171663 125.0063224  99.3773224  28.2711663
 125.9663224  98.8613224  28.2871663 125.1603224 100.3733224  27.8591663
 124.1073224  98.6183224  27.2821663 123.1643224  99.1533224  27.1631663
 124.7023224  98.5443224  25.8681663 124.0223224  97.9973224  25.2151663
 124.8433224  99.5533224  25.4791663 125.6623224  98.0303224  25.9041663
 123.8293224  97.2233224  27.8081663 123.1903224  96.6893224  27.1041663
 124.7693224  96.6843224  27.9261663 123.3273224  97.2913224  28.7731663
 125.4193224 100.3843224  30.6131663 124.9343224 101.0453224  31.5451663
 126.7303224 100.3643224  30.3841663 127.0923224  99.9063224  29.5601663
 127.6623224 100.9993224  31.3131663 127.5493224 102.0813224  31.2581663
 128.6853224 100.7673224  31.0171663 127.4163224 100.5263224  32.7331663
 127.2633224  99.3113224  32.9701663 127.3523224 101.4763224  33.6671663
 127.4203224 102.4483224  33.4011663 127.1833224 101.1333224  35.0861663
 127.4093224 100.0743224  35.2151663 128.2333224 101.8533224  35.9231663
 128.0293224 101.6913224  36.9811663 128.1723224 102.9253224  35.7391663
 129.6303224 101.3293224  35.5641663 129.8373224 101.5353224  34.5131663
 129.6713224 100.2543224  35.7381663 130.6903224 101.9703224  36.3781663
 130.5663224 103.0523224  36.3491663 131.6673224 101.7063224  35.9761663
 130.6393224 101.5423224  37.7711663 130.1193224 102.1173224  38.4211663
 131.2223224 100.4503224  38.2711663 131.9193224  99.6023224  37.5031663
 132.0163224  99.7803224  36.5131663 132.3483224  98.7853224  37.9131663
 131.1023224 100.2053224  39.5721663 130.5783224 100.8393224  40.1601663
 131.5343224  99.3863224  39.9731663 125.7563224 101.3623224  35.5921663
 125.5273224 101.6393224  36.7591663 124.7943224 101.1823224  34.6971663
 125.0253224 100.8733224  33.7631663 123.3913224 101.4253224  35.0421663
 123.3293224 102.3593224  35.6021663 122.5703224 101.6023224  33.7611663
 121.5103224 101.5053224  33.9921663 122.8243224 100.8133224  33.0541663
 122.8263224 102.8673224  33.1861663 122.3823224 102.9253224  32.2921663
 122.7273224 100.3643224  35.9441663 121.9173224 100.7223224  36.8051663
 123.0323224  99.0863224  35.7171663 123.7683224  98.8633224  35.0621663
 122.3143224  97.9783224  36.4061663 121.8313224  98.3803224  37.2981663
 121.2273224  97.3493224  35.4511663 121.7293224  96.8593224  34.6171663
 120.4623224  96.1723224  36.1301663 119.7243224  95.7693224  35.4361663
 121.1683224  95.3883224  36.4031663 119.9573224  96.5353224  37.0251663
 120.2693224  98.4273224  34.8881663 119.5353224  97.9563224  34.2341663
 119.7563224  98.9243224  35.7121663 120.8413224  99.1623224  34.3211663
 123.3153224  96.8893224  36.7991663 124.0443224  96.3573224  35.9231663
 123.3753224  96.5493224  38.0911663 122.7993224  97.0173224  38.7761663
 124.2883224  95.4803224  38.5311663 124.8273224  95.1053224  37.6601663
 125.4413224  95.9753224  39.4331663 125.7853224  96.9473224  39.0831663
 126.2813224  95.2853224  39.3601663 125.0803224  96.0923224  40.7791663
 125.7343224  95.5953224  41.3531663 123.5683224  94.3083224  39.1541663
 122.5943224  94.4833224  39.8671663 124.0393224  93.1103224  38.8131663
 124.7723224  93.0823224  38.1191663 123.5493224  91.8443224  39.3921663
 122.7393224  92.0713224  40.0841663 122.9853224  90.8893224  38.3041663
 122.9113224  89.8873224  38.7261663 123.6863224  90.8593224  37.4711663
 121.6133224  91.2223224  37.7151663 120.9333224  91.5103224  38.5171663
 121.7043224  92.4403224  36.7661663 120.7173224  92.6593224  36.3591663
 122.0673224  93.3063224  37.3191663 122.3913224  92.2153224  35.9511663
 121.0663224  89.9663224  36.9861663 120.0873224  90.1893224  36.5611663
 121.7513224  89.6813224  36.1871663 120.9753224  89.1443224  37.6961663
 124.6823224  91.1413224  40.1571663 125.8733224  91.2183224  39.7681663
 124.3223224  90.4583224  41.2421663 123.3653224  90.5293224  41.5571663
 125.2803224  89.5943224  42.0061663 126.1803224  89.4613224  41.4061663
 125.6763224  90.1973224  43.3631663 126.3353224  89.5073224  43.8891663
 124.7853224  90.3303224  43.9761663 126.3783224  91.5213224  43.3481663
 125.8613224  92.1873224  42.6581663 127.4073224  91.3713224  43.0221663
 126.3853224  92.1523224  44.7311663 125.4233224  92.8373224  45.1111663
 127.4683224  91.9323224  45.4871663 127.5253224  92.3243224  46.4061663
 128.2203224  91.3763224  45.1341663 124.6243224  88.2153224  42.2621663
 123.6123224  88.1103224  42.9451663 125.2503224  87.1443224  41.7561663
 126.0523224  87.2833224  41.1581663 124.8053224  85.7823224  42.0451663
 123.7333224  85.7223224  41.8601663 125.4683224  84.7753224  41.0901663
 125.1773224  83.7683224  41.3891663 126.5493224  84.8623224  41.1891663
 125.1563224  84.8933224  39.5961663 125.6003224  85.8083224  39.2031663
 125.8733224  83.7373224  38.8581663 125.6643224  83.8023224  37.7901663
 126.9483224  83.8123224  39.0221663 125.5133224  82.7833224  39.2401663
 123.6403224  84.9423224  39.2891663 123.4893224  85.0273224  38.2121663
 123.1663224  84.0303224  39.6511663 123.1963224  85.8043224  39.7861663
 125.0493224  85.3913224  43.5081663 126.0013224  85.8663224  44.1441663
 124.1513224  84.5413224  44.0311663 123.4063224  84.2363224  43.4211663
 124.1953224  84.0363224  45.4311663 125.1173224  84.3853224  45.8951663
 122.9813224  84.5433224  46.2971663 122.0463224  84.2773224  45.8041663
 123.0103224  83.8993224  47.6941663 122.1653224  84.2613224  48.2791663
 122.9463224  82.8163224  47.5971663 123.9403224  84.1643224  48.1981663
 122.9243224  86.0863224  46.3471663 123.1373224  86.4903224  45.3571663
 123.6943224  86.4573224  47.0231663 121.5523224  86.6623224  46.8161663
 121.5983224  87.7513224  46.8221663 120.7673224  86.3363224  46.1331663
 121.3313224  86.3033224  47.8201663 124.1683224  82.5003224  45.3791663
 123.3003224  81.9013224  44.6931663 125.1133224  81.8763224  46.0751663
 125.7583224  82.4143224  46.6351663 125.2393224  80.4163224  46.0461663
 125.1113224  80.0783224  45.0171663 126.6163224  80.0023224  46.5471663
 126.7423224  80.3303224  47.5781663 127.3833224  80.4953224  45.9511663
 126.7503224  78.5973224  46.4581663 127.5733224  78.3723224  45.9371663
 124.1673224  79.7403224  46.9041663 123.8863224  80.1893224  48.0121663
 123.6173224  78.6243224  46.4071663 123.8543224  78.3633224  45.4611663
 122.7033224  77.7833224  47.1671663 122.2323224  78.4003224  47.9321663
 121.6123224  77.2053224  46.2251663 120.9313224  76.5773224  46.7991663
 121.0543224  78.0233224  45.7701663 122.0843224  76.6103224  45.4451663
 123.4183224  76.6373224  47.9011663 122.8163224  75.9583224  48.7431663
 124.6873224  76.3833224  47.5751663 125.1973224  77.0173224  46.9771663
 125.3613224  75.1763224  48.0811663 124.7063224  74.6933224  48.8061663
 125.6133224  74.1393224  46.9281663 126.0853224  73.2463224  47.3381663
 124.3173224  73.7333224  46.2471663 124.5313224  73.0153224  45.4561663
 123.6483224  73.2793224  46.9781663 123.8403224  74.6133224  45.8181663
 126.5403224  74.6973224  45.9761663 127.1393224  75.3643224  46.4281663
 126.6883224  75.4253224  48.8311663 127.1923224  74.5043224  49.4771663
 127.2543224  76.6383224  48.7311663 126.8143224  77.3033224  48.1111663
 128.4613224  77.0373224  49.4671663 128.7433224  76.2233224  50.1361663
 129.6403224  77.3413224  48.5221663 130.4503224  77.8033224  49.0871663
 129.3223224  78.0553224  47.7621663 130.2173224  76.1433224  47.8031663
 130.6293224  76.4583224  46.8451663 129.4273224  75.4153224  47.6171663
 131.3263224  75.4553224  48.6011663 131.0923224  75.5023224  49.6641663
 132.2713224  75.9723224  48.4311663 131.4423224  73.9943224  48.1571663
 131.7253224  73.9553224  47.1051663 130.4773224  73.5023224  48.2691663
 132.4573224  73.2013224  48.9361663 132.4803224  72.2523224  48.5911663
 133.3693224  73.6213224  48.8271663 132.2043224  73.1973224  49.9141663
 128.2103224  78.2723224  50.3181663 127.7713224  79.3163224  49.7981663
 128.4973224  78.1623224  51.6091663 128.9393224  77.3093224  51.9191663
 128.2053224  79.2073224  52.5851663 127.6853224  80.0153224  52.0711663
 127.2953224  78.6373224  53.6681663 127.0723224  79.4123224  54.4011663
 126.3673224  78.2873224  53.2161663 127.7943224  77.8043224  54.1611663
 129.4533224  79.8623224  53.2281663 130.5393224  79.2743224  53.3011663
 129.2713224  81.0963224  53.6891663 128.3813224  81.5353224  53.5021663
 130.2803224  81.8303224  54.4381663 131.2503224  81.6613224  53.9691663
 130.0293224  83.3483224  54.3861663 129.9743224  83.6723224  53.3461663
 130.8663224  83.8713224  54.8481663 128.7443224  83.7703224  55.0941663
 128.2003224  82.9793224  55.9031663 128.2653224  84.9083224  54.8261663
 130.3313224  81.3243224  55.8801663 129.6383224  80.3723224  56.2331663
 131.1783224  81.9473224  56.7061663 131.7093224  82.7313224  56.3551663
 131.3603224  81.5273224  58.1041663 131.6073224  80.4653224  58.1091663
 132.5283224  82.2893224  58.7331663 132.6553224  81.9713224  59.7681663
 133.4413224  82.0813224  58.1751663 132.3223224  83.3583224  58.7051663
 130.1023224  81.6693224  58.9831663 130.0583224  81.1383224  60.0891663
 129.1033224  82.3963224  58.5031663 129.2243224  82.8463224  57.6071663
 127.8323224  82.5693224  59.2271663 127.9493224  82.2253224  60.2541663
 127.4873224  84.0663224  59.2911663 126.4743224  84.1903224  59.6721663
 127.5133224  84.4893224  58.2861663 128.4283224  84.8313224  60.1621663
 128.2363224  84.9653224  61.5221663 129.2523224  85.6333224  62.0441663
 129.3653224  85.9033224  63.0941663 130.1073224  85.9173224  61.0751663
 130.9763224  86.4203224  61.1831663 129.6213224  85.4153224  59.8901663
 130.0983224  85.4883224  58.9121663 126.6813224  81.7603224  58.6311663
 125.5043224  82.0403224  58.8971663 127.0153224  80.7663224  57.8151663
 127.9903224  80.6033224  57.6061663 126.0023224  79.9003224  57.2101663
 125.2663224  79.6203224  57.9631663 126.4713224  78.9803224  56.8621663
 125.2113224  80.4533224  56.0231663 124.3813224  79.7483224  55.4511663
 125.5193224  81.6823224  55.6151663 126.2723224  82.1613224  56.0891663
 124.8283224  82.3513224  54.5351663 123.8123224  81.9583224  54.4781663
 124.8163224  83.8683224  54.8001663 124.7553224  84.4033224  53.8521663
 125.7503224  84.1613224  55.2811663 123.6783224  84.3713224  55.6771663
 123.8173224  84.0103224  56.6961663 122.7303224  83.9853224  55.3001663
 123.6123224  85.8973224  55.7011663 123.9033224  86.2893224  54.7271663
 124.3073224  86.2803224  56.4501663 122.1903224  86.3883224  56.0351663
 121.7523224  85.7443224  56.7971663 121.5673224  86.3333224  55.1431663
 122.1493224  87.8143224  56.5481663 121.1933224  88.0733224  56.7481663
 122.7003224  87.8853224  57.3921663 122.5263224  88.4353224  55.8471663
 125.5153224  82.0753224  53.1921663 126.7293224  82.1803224  53.0861663
 124.7333224  81.7773224  52.1531663 123.7373224  81.6783224  52.2861663
 125.2963224  81.5893224  50.8151663 124.4893224  81.5213224  50.0871663
 125.8413224  80.6463224  50.7791663 126.2443224  82.6943224  50.3591663
 125.9703224  83.8843224  50.5561663 127.3403224  82.2933224  49.7191663
 127.4753224  81.3033224  49.5731663 128.3523224  83.2333224  49.2221663
 128.6323224  83.9023224  50.0361663 129.6063224  82.4903224  48.7571663
 130.2593224  83.1793224  48.2211663 129.3243224  81.6993224  48.0621663
 130.3873224  81.8733224  49.9031663 129.7613224  81.1473224  50.4201663
 130.6703224  82.6523224  50.6121663 131.6533224  81.1663224  49.4471663
 132.3043224  81.8773224  48.9391663 131.3943224  80.3723224  48.7451663
 132.3783224  80.5793224  50.6151663 131.8283224  79.7153224  50.9881663
 132.4373224  81.3163224  51.4141663 133.7493224  80.1653224  50.2111663
 134.2303224  79.7703224  51.0061663 133.6903224  79.4743224  49.4761663
 134.2593224  80.9703224  49.8761663 127.8153224  84.0963224  48.0841663
 127.0533224  83.6023224  47.2241663 128.2083224  85.3783224  48.0971663
 128.8273224  85.6703224  48.8391663 127.7833224  86.3593224  47.0941663
 126.9903224  85.9153224  46.4901663 127.1863224  87.6163224  47.7601663
 127.9863224  88.1703224  48.2511663 126.6253224  88.5863224  46.7081663
 126.2113224  89.4633224  47.2061663 127.4253224  88.8953224  46.0351663
 125.8403224  88.0903224  46.1371663 126.1213224  87.2133224  48.8111663
 125.7093224  88.1093224  49.2731663 125.3213224  86.6553224  48.3231663
 126.5833224  86.5903224  49.5771663 128.9473224  86.7553224  46.1531663
 130.0893224  87.0003224  46.5861663 128.6583224  86.7373224  44.8501663
 127.7493224  86.4053224  44.5601663 129.6113224  87.1803224  43.8361663
 129.3183224  86.7843224  42.8641663 130.5983224  86.7763224  44.0631663
 129.7683224  88.6933224  43.6781663 129.1543224  89.5073224  44.3961663
 130.5723224  89.0403224  42.6821663 130.9893224  88.2953224  42.1431663
 130.8763224  90.4233224  42.3361663 131.0653224  90.9773224  43.2561663
 132.1223224  90.4433224  41.4281663 132.2433224  91.4383224  40.9991663
 131.9823224  89.7453224  40.6021663 133.3703224  90.0783224  42.1641663
 133.2253224  89.1283224  42.6781663 133.5913224  90.8443224  42.9091663
 134.5393224  89.9583224  41.2021663 134.5583224  90.8253224  40.5421663
 134.4183224  89.0623224  40.5921663 135.8843224  89.8743224  41.9301663
 136.6183224  89.3933224  41.2841663 135.7743224  89.2693224  42.8291663
 136.4533224  91.2033224  42.3471663 137.3363224  91.0593224  42.8171663
 136.5973224  91.7803224  41.5301663 135.8093224  91.6643224  42.9741663
 129.7473224  91.1513224  41.6351663 128.9563224  90.5323224  40.9291663
 129.6833224  92.4753224  41.8261663 130.2743224  92.9023224  42.5251663
 128.7753224  93.3223224  41.0441663 127.7543224  92.9723224  41.2001663
 128.8723224  94.7893224  41.4851663 128.3443224  95.4203224  40.7701663
 129.9173224  95.1003224  41.4871663 128.2893224  95.0203224  42.8671663
 127.1453224  94.6243224  43.1031663 128.9813224  95.6273224  43.7151663
 129.1053224  93.2253224  39.5571663 130.2513224  93.4403224  39.1541663
 128.1003224  92.9063224  38.7511663 127.1703224  92.8833224  39.1441663
 128.2823224  92.5913224  37.3371663 129.2863224  92.8973224  37.0411663
 128.0863224  91.0533224  37.1111663 127.0443224  90.7893224  37.2881663
 128.4603224  90.6053224  35.6601663 128.3053224  89.5313224  35.5601663
 127.8303224  91.1323224  34.9431663 129.5063224  90.8403224  35.4651663
 128.9213224  90.3533224  38.0391663 128.6833224  90.6043224  38.9831663
 127.2433224  93.3733224  36.5441663 126.0713224  93.3053224  36.8701663
 127.6753224  94.1483224  35.5531663 128.6603224  94.1013224  35.3371663
 126.8213224  95.0403224  34.7811663 125.9183224  95.2413224  35.3591663
 127.5523224  96.3773224  34.5991663 126.9443224  97.0443224  33.9891663
 128.4883224  96.2103224  34.0681663 127.8433224  97.0403224  35.9001663
 129.0143224  96.7523224  36.5851663 129.7313224  96.0583224  36.1451663
 129.2683224  97.3413224  37.8141663 130.2033224  97.1333224  38.3341663
 128.3353224  98.1983224  38.3881663 128.5323224  98.6483224  39.3601663
 127.1463224  98.4813224  37.7221663 126.4233224  99.1643224  38.1661663
 126.9003224  97.8783224  36.4871663 125.9733224  98.0893224  35.9531663
 126.3733224  94.4433224  33.4471663 127.0073224  93.5303224  32.9071663
 125.2393224  94.9273224  32.9411663 124.7193224  95.6063224  33.4781663
 124.7293224  94.5083224  31.6431663 124.6023224  93.4263224  31.6541663
 123.3333224  95.1313224  31.3941663 122.9563224  94.7693224  30.4381663
 123.4413224  96.2133224  31.3321663 122.2533224  94.8413224  32.4491663
 122.5523224  95.2743224  33.4041663 120.9523224  95.4963224  32.0191663
 120.1803224  95.2953224  32.7621663 121.0983224  96.5733224  31.9311663
 120.6423224  95.0913224  31.0561663 122.0783224  93.3273224  32.6131663
 121.3123224  93.1283224  33.3631663 121.7763224  92.8903224  31.6611663
 123.0223224  92.8843224  32.9321663 125.7403224  94.8883224  30.5391663
 126.2513224  96.0073224  30.4931663 126.0523224  93.9373224  29.6671663
 125.5373224  93.0683224  29.6571663 127.1493224  94.1313224  28.7041663
 127.8213224  94.8963224  29.0951663 127.9373224  92.8373224  28.5431663
 128.8463224  93.0333224  27.9741663 127.3453224  92.1183224  27.9761663
 128.3213224  92.2103224  29.8661663 127.4363224  92.1493224  30.4981663
 129.0463224  92.8533224  30.3641663 128.9193224  90.8293224  29.7181663
 128.8003224  90.2273224  28.6121663 129.4933224  90.3603224  30.7341663
 126.6873224  94.6163224  27.3341663 127.4083224  95.3693224  26.6711663
 125.5403224  94.1283224  26.8711663 125.0773224  93.4053224  27.4031663
 124.9293224  94.5993224  25.6251663 125.5793224  94.3543224  24.7861663
 124.8363224  95.6853224  25.6531663 123.5523224  93.9953224  25.3711663
 123.0723224  93.1913224  26.1571663 122.9713224  94.3773224  24.2351663
 123.5293224  94.9623224  23.6301663 121.6263224  94.0163224  23.8251663
 121.0283224  93.8393224  24.7181663 120.9773224  95.1913224  23.0141663
 121.5833224  95.4033224  22.1341663 119.5713224  94.8313224  22.5621663
 119.1443224  95.6633224  22.0031663 119.6093224  93.9483224  21.9261663
 118.9503224  94.6243224  23.4341663 120.9833224  96.4923224  23.8531663
 121.8663224  96.5083224  24.4931663 120.1093224  96.5093224  24.5031663
 120.9803224  97.8043224  23.0281663 120.9853224  98.6593224  23.7041663
 121.8673224  97.8373224  22.3941663 120.0873224  97.8403224  22.4061663
 121.6573224  92.7313224  22.9891663 122.3563224  92.6543224  21.9641663
 120.9223224  91.7213224  23.4461663 120.4583224  91.8383224  24.3361663
 120.7623224  90.4693224  22.7221663 121.6843224  90.2653224  22.1751663
 120.4783224  89.3283224  23.7091663 119.4483224  89.3973224  24.0581663
 121.1273224  89.4303224  24.5801663 120.6923224  87.9553224  23.1071663
 120.4603224  87.7373224  21.9211663 121.1433224  87.0193224  23.9301663
 121.3053224  86.0913224  23.5921663 121.3223224  87.2403224  24.8881663
 119.6253224  90.5983224  21.7001663 118.4443224  90.7213224  22.0641663
 119.9833224  90.5533224  20.4201663 120.9553224  90.4083224  20.1891663
 119.0133224  90.7073224  19.3431663 118.0673224  91.0343224  19.7741663
 119.4643224  91.8743224  18.3891663 120.2583224  92.4483224  18.8661663
 119.9873224  91.3723224  17.0451663 120.2833224  92.2213224  16.4301663
 120.8483224  90.7243224  17.2091663 119.2033224  90.8123224  16.5361663
 118.3793224  92.8043224  18.2111663 117.7473224  92.7523224  18.9901663
 118.7883224  89.3453224  18.6351663 118.0643224  89.2633224  17.6341663
 119.3653224  88.2813224  19.2121663 119.7943224  88.4203224  20.1161663
 119.4013224  86.9413224  18.5981663 119.3303224  87.0543224  17.5151663
 120.7463224  86.2483224  18.8971663 121.5633224  86.9433224  18.7081663
 120.8763224  85.4003224  18.2251663 120.8203224  85.7943224  20.2431663
 120.6733224  86.5653224  20.8601663 118.2423224  86.0133224  19.0071663
 117.9473224  85.0563224  18.2901663 117.6053224  86.2613224  20.1521663
 117.9333224  86.9883224  20.7721663 116.4193224  85.4823224  20.5281663
 116.6343224  84.4263224  20.3671663 116.0763224  85.6553224  22.0161663
 115.1533224  85.1143224  22.2251663 115.9053224  86.7123224  22.2121663
 117.1133224  85.1763224  23.0531663 116.6243224  84.5353224  23.7871663
 118.2053224  84.2933224  22.4171663 118.9123224  83.9793224  23.1851663
 117.7453224  83.4133224  21.9671663 118.7313224  84.8613224  21.6501663
 117.7463224  86.3523224  23.7801663 118.4723224  85.9833224  24.5051663
 118.2483224  86.9983224  23.0591663 116.9723224  86.9193224  24.2981663
 115.2383224  85.9103224  19.6471663 115.0153224  87.1133224  19.4641663
 114.4773224  84.9373224  19.0941663 114.5253224  83.4783224  19.3431663
 115.5443224  83.0783224  19.2361663 114.1103224  83.2253224  20.3301663
 113.6223224  82.8893224  18.2391663 114.1423224  82.1023224  17.6741663
 112.7183224  82.4303224  18.6641663 113.2393224  84.0503224  17.3041663
 113.9093224  84.1433224  16.4361663 112.2153224  83.9673224  16.9121663
 113.3603224  85.2913224  18.1951663 113.6183224  86.2053224  17.6401663
 112.0603224  85.4853224  18.9691663 111.0443224  85.9373224  18.4271663
 112.1373224  85.1903224  20.2561663 113.0253224  85.2853224  20.7281663
 110.9913224  84.7373224  21.0021663 110.2503224  84.3553224  20.3001663
 111.4363224  83.5793224  21.9561663 110.6493224  83.3853224  22.6851663
 111.7113224  82.2883224  21.1541663 112.0193224  81.4953224  21.8351663
 110.8053224  81.9853224  20.6301663 112.5043224  82.4723224  20.4301663
 112.6323224  83.9643224  22.6641663 113.3423224  84.2473224  22.0131663
 110.2793224  85.8323224  21.8001663 109.1573224  85.6083224  22.2521663
 110.8923224  87.0083224  21.9601663 111.6433224  87.2853224  21.3441663
 110.4763224  87.9223224  23.0451663 110.4503224  87.3613224  23.9791663
 111.4923224  89.0523224  23.2661663 111.0463224  89.7963224  23.9261663
 111.7003224  89.5253224  22.3071663 112.8543224  88.7093224  23.8731663
 113.4613224  88.1863224  23.1331663 113.5623224  89.9963224  24.2311663
 114.5353224  89.7673224  24.6651663 113.6993224  90.5983224  23.3331663
 112.9643224  90.5513224  24.9531663 112.7323224  87.8223224  25.0891663
 113.7263224  87.6063224  25.4831663 112.1413224  88.3303224  25.8521663
 112.2413224  86.8893224  24.8111663 109.0803224  88.5393224  22.8911663
 108.6883224  88.9703224  21.8031663 108.3573224  88.5943224  24.0121663
 108.7513224  88.2013224  24.8551663 107.0273224  89.1983224  24.0631663
 106.5533224  88.9533224  25.0121663 106.4053224  88.7753224  23.2741663
 107.1093224  90.7043224  23.9021663 108.1813224  91.2963224  24.0671663
 105.9623224  91.3183224  23.5871663 105.1243224  90.7583224  23.5241663
 105.8793224  92.7653224  23.3321663 106.4833224  92.9893224  22.4531663
 104.4283224  93.1743224  23.0191663 104.3853224  94.2473224  22.8331663
 104.0813224  92.6383224  22.1351663 103.7903224  92.9273224  23.8661663
 106.4433224  93.6203224  24.4801663 106.2183224  93.3393224  25.6651663
 107.1843224  94.6593224  24.0961663 107.3213224  94.7923224  23.1041663
 107.7963224  95.5983224  25.0301663 107.0583224  95.9093224  25.7691663
 108.1103224  96.4933224  24.4931663 109.0133224  95.0853224  25.7991663
 109.5853224  95.8343224  26.6001663 109.4163224  93.8393224  25.5631663
 108.9383224  93.2883224  24.8641663 110.5433224  93.2433224  26.2981663
 110.6543224  93.7693224  27.2471663 110.2683224  91.7653224  26.5411663
 111.1603224  91.2923224  26.9521663 110.0463224  91.2763224  25.5931663
 109.1003224  91.5093224  27.5011663 108.2533224  92.1243224  27.1981663
 109.3953224  91.8143224  28.5051663 108.6583224  90.0353224  27.5461663
 109.4933224  89.1603224  27.2581663 107.4503224  89.7683224  27.8391663
 111.8613224  93.3863224  25.5201663 111.8523224  93.2993224  24.2961663
 112.9673224  93.5593224  26.2401663 112.8683224  93.7183224  27.2331663
 114.3073224  93.5283224  25.6531663 114.2303224  93.1473224  24.6341663
 114.9143224  94.9283224  25.6231663 115.9443224  94.8703224  25.2731663
 114.9343224  95.3383224  26.6331663 114.1773224  95.7963224  24.7771663
 113.5373224  96.3313224  25.3261663 115.2303224  92.6013224  26.4481663
 115.1303224  92.4913224  27.6761663 116.1403224  91.9543224  25.7241663
 116.2013224  92.1613224  24.7371663 117.0433224  90.9673224  26.2991663
 116.7093224  90.7533224  27.3141663 117.0273224  89.6803224  25.4721663
 117.7083224  88.9543224  25.9161663 116.0173224  89.2703224  25.4571663
 117.3443224  89.8983224  24.4541663 118.4343224  91.5573224  26.3361663
 118.8533224  92.2023224  25.3591663 119.1383224  91.3323224  27.4561663
 118.6983224  90.8013224  28.1941663 120.5043224  91.8213224  27.6461663
 120.8423224  92.2763224  26.7141663 120.5473224  92.8693224  28.7631663
 121.5833224  93.1283224  28.9791663 120.1193224  92.4493224  29.6721663
 119.7973224  94.1523224  28.4361663 120.4613224  95.2433224  27.9041663
 121.5323224  95.1733224  27.7121663 119.7813224  96.4153224  27.6141663
 120.3203224  97.2713224  27.2091663 118.4103224  96.4953224  27.8411663
 117.8763224  97.4223224  27.6371663 117.7463224  95.4113224  28.3201663
 116.6683224  95.4563224  28.4711663 118.4373224  94.2413224  28.6211663
 117.8993224  93.3743224  29.0061663 121.4433224  90.6893224  27.9951663
 121.1013224  89.8263224  28.8211663 122.6133224  90.6863224  27.3581663
 122.7493224  91.3343224  26.5951663 123.7043224  89.7783224  27.7271663
 123.2773224  88.8013224  27.9611663 124.6893224  89.5963224  26.5621663
 125.4803224  88.9073224  26.8591663 125.1583224  90.5533224  26.3291663
 124.0183224  89.0613224  25.3081663 123.2583224  88.1003224  25.3571663
 124.2863224  89.6993224  24.1801663 123.8733224  89.3933224  23.3221663
 124.9013224  90.4873224  24.1851663 124.4643224  90.2183224  28.9891663
 124.7013224  91.4153224  29.2241663 124.9023224  89.2163224  29.7511663
 124.6563224  88.2783224  29.4681663 125.7113224  89.4083224  30.9611663
 126.3893224  90.2443224  30.7941663 124.8043224  89.7653224  32.1811663
 124.2863224  90.7043224  31.9871663 123.7643224  88.6333224  32.3961663
 123.1303224  88.8793224  33.2471663 123.1493224  88.5303224  31.5031663
 124.2833224  87.6943224  32.5891663 125.6463224  90.0353224  33.4371663
 126.6063224  90.4633224  33.1471663 125.8503224  89.0943224  33.9471663
 124.9723224  90.9913224  34.4321663 125.6233224  91.1373224  35.2941663
 124.7903224  91.9513224  33.9481663 124.0253224  90.5653224  34.7611663
 126.5273224  88.1133224  31.2191663 126.0753224  87.0023224  30.9211663
 127.7393224  88.2623224  31.7441663 128.0583224  89.2013224  31.9361663
 128.6243224  87.1263224  32.0531663 128.0633224  86.1953224  31.9721663
 129.8073224  87.0433224  31.0771663 130.5693224  86.3803224  31.4851663
 130.2573224  88.0303224  30.9661663 129.4443224  86.5443224  29.7091663
 128.9883224  87.3753224  28.7051663 128.7693224  86.6653224  27.6101663
 128.3963224  87.0533224  26.6621663 129.0803224  85.4063224  27.8631663
 129.0143224  84.6383224  27.2101663 129.5123224  85.3043224  29.1651663
 129.8383224  84.3943224  29.6691663 129.1473224  87.2633224  33.4811663
 129.7063224  88.3183224  33.8471663 128.9533224  86.2083224  34.2821663
 128.5333224  85.3753224  33.8941663 129.3283224  86.2243224  35.6921663
 129.4993224  87.2593224  35.9931663 128.2173224  85.6353224  36.5731663
 128.5503224  85.6113224  37.6101663 128.0183224  84.6083224  36.2691663
 126.9333224  86.3823224  36.5231663 125.9193224  85.9643224  35.6821663
 126.0823224  85.0973224  35.0411663 124.7063224  86.6323224  35.6471663
 123.9143224  86.2873224  34.9831663 124.5123224  87.7563224  36.4761663
 123.5713224  88.3033224  36.4421663 125.5363224  88.1493224  37.3281663
 125.3943224  89.0013224  37.9921663 126.7223224  87.4813224  37.3441663
 127.5183224  87.8003224  38.0181663 130.6133224  85.4253224  35.8951663
 130.7383224  84.2923224  35.4001663 131.5473224  86.0093224  36.6291663
 131.4403224  86.9803224  36.8851663 132.7373224  85.2783224  37.0801663
 133.1503224  84.7323224  36.2311663 133.7983224  86.2643224  37.6031663
 133.3043224  87.1253224  38.0541663 134.3973224  86.6303224  36.7691663
 134.7933224  85.7213224  38.6591663 135.3263224  84.8703224  38.2371663
 134.2323224  85.3713224  39.5251663 135.8423224  86.7703224  39.1501663
 135.7003224  87.9963224  38.9041663 136.8123224  86.3503224  39.8141663
 132.2343224  84.3413224  38.1741663 131.6123224  84.8033224  39.1231663
 132.4493224  83.0323224  38.0151663 132.9613224  82.7103224  37.2061663
 131.9573224  82.0473224  38.9911663 132.1463224  82.4303224  39.9941663
 130.4683224  81.8233224  38.7781663 130.3163224  81.2083224  37.8911663
 129.9783224  82.7803224  38.6001663 129.7443224  81.1633224  39.8961663
 129.4363224  79.8343224  40.0061663 129.7203224  79.0673224  39.2881663
 128.7183224  79.6183224  41.1541663 128.3993224  78.7203224  41.4881663
 128.4933224  80.8073224  41.7891663 127.7933224  81.0853224  42.9751663
 127.2933224  80.3053224  43.5491663 127.7603224  82.3833224  43.3951663
 127.2273224  82.6363224  44.3121663 128.4033224  83.4193224  42.6671663
 128.3803224  84.4493224  43.0251663 129.0783224  83.1453224  41.4771663
 129.5623224  83.9443224  40.9151663 129.1223224  81.8143224  41.0221663
 132.6663224  80.6993224  38.8691663 132.3403224  79.8903224  37.9971663
 133.5913224  80.4493224  39.7781663 133.8443224  81.1543224  40.4561663
 134.2523224  79.1703224  39.8161663 134.5483224  78.9033224  38.8011663
 135.4873224  79.3093224  40.6841663 135.1893224  79.3993224  41.7291663
 136.0203224  80.2223224  40.4161663 136.4123224  78.1403224  40.5371663
 137.1833224  78.0763224  39.5331663 136.3453224  77.2663224  41.4311663
 133.3103224  78.0503224  40.3391663 132.3713224  78.3163224  41.0841663
 133.5723224  76.8033224  39.9451663 134.2613224  76.6543224  39.2221663
 132.8893224  75.6453224  40.5311663 133.3143224  74.7283224  40.1241663
 131.8363224  75.6633224  40.2511663 132.9743224  75.5723224  42.0601663
 132.0483224  75.0393224  42.7221663 134.0513224  76.1403224  42.6241663
 134.7883224  76.4903224  42.0291663 134.1863224  76.2663224  44.0761663
 134.1143224  75.2713224  44.5181663 135.5423224  76.8573224  44.4091663
 136.3263224  76.2233224  43.9971663 135.6743224  76.8793224  45.4911663
 135.6393224  78.1643224  43.8771663 135.8753224  78.1143224  42.9071663
 133.0913224  77.1123224  44.7601663 132.8713224  76.9583224  45.9641663
 132.4113224  77.9923224  44.0081663 132.6573224  78.0563224  43.0311663
 131.3273224  78.8643224  44.5421663 131.5803224  79.1433224  45.5651663
 131.2113224  80.1573224  43.7151663 130.2893224  80.6773224  43.9791663
 131.1543224  79.9083224  42.6561663 132.3633224  81.1653224  43.8811663
 132.3423224  81.8803224  43.0591663 133.3163224  80.6373224  43.8491663
 132.3003224  82.1083224  45.4401663 131.0173224  83.3313224  45.1351663
 130.8953224  83.9593224  46.0181663 131.3003224  83.9523224  44.2841663
 130.0763224  82.8253224  44.9171663 129.9813224  78.1323224  44.5821663
 128.9783224  78.6653224  45.0961663 129.9533224  76.9253224  44.0131663
 130.7973224  76.6093224  43.5561663 128.7933224  76.0653224  44.0201663
 128.2873224  76.1443224  44.9821663 129.1083224  75.0283224  43.9081663
 127.8043224  76.3953224  42.9211663 128.1773224  76.8973224  41.8541663
 126.5403224  76.1003224  43.1971663 126.3183224  75.7543224  44.1201663
 125.4793224  76.2563224  42.2311663 125.9253224  76.4083224  41.2491663
 124.5543224  74.9973224  42.1891663 124.1253224  74.8283224  43.1761663
 123.4073224  75.1863224  41.1791663 122.7803224  74.2953224  41.1701663
 122.8083224  76.0493224  41.4671663 123.8213224  75.3483224  40.1841663
 125.3573224  73.7153224  41.8581663 126.1483224  73.5813224  42.5961663
 125.8343224  73.8263224  40.8851663 124.5273224  72.4413224  41.8291663
 125.1703224  71.5933224  41.5901663 124.0673224  72.2843224  42.8051663
 123.7503224  72.5313224  41.0721663 124.6503224  77.4883224  42.6261663
 124.0893224  77.5273224  43.7291663 124.5303224  78.4773224  41.7231663
 125.1073224  78.6203224  40.3741663 126.1573224  78.2943224  40.3341663
 124.5083224  78.0943224  39.6161663 125.0333224  80.0733224  40.1381663
 125.8983224  80.6093224  40.5571663 124.9943224  80.3213224  39.0671663
 123.7923224  80.5073224  40.8071663 123.8063224  81.5733224  41.0761663
 122.8973224  80.3443224  40.1881663 123.7173224  79.6473224  42.0751663
 124.1543224  80.1393224  42.9561663 122.2433224  79.2983224  42.3641663
 121.6523224  78.4593224  41.6681663 121.6633224  79.9163224  43.3821663
 122.2083224  80.5613224  43.9361663 120.2403224  79.6893224  43.7301663
 120.1793224  79.1143224  44.6531663 119.7653224  79.0953224  42.9491663
 119.4373224  80.9613224  43.9111663 118.2303224  80.8943224  44.1241663
 120.0943224  82.1273224  43.8451663 121.0873224  82.0863224  43.6651663
 119.4413224  83.4603224  44.0211663 118.4903224  83.4443224  43.4891663
 119.1343224  83.7563224  45.5081663 118.6603224  84.7343224  45.5941663
 118.4633224  82.9923224  45.9001663 120.0613224  83.7513224  46.0781663
 120.3263224  84.5523224  43.4231663 121.4663224  84.2603224  43.0431663
 119.8513224  85.8033224  43.3271663 118.8743224  85.9603224  43.5311663
 120.6943224  86.9433224  42.9391663 121.7013224  86.7753224  43.3231663
 120.8773224  87.0723224  41.4181663 121.1763224  86.1103224  41.0051663
 121.6763224  87.7813224  41.2071663 119.6603224  87.5293224  40.6511663
 119.4673224  88.8803224  40.3471663 120.1973224  89.6133224  40.6921663
 118.3423224  89.3123224  39.5991663 118.2073224  90.3713224  39.3821663
 117.4373224  88.3823224  39.1581663 116.5693224  88.6963224  38.5801663
 117.6183224  87.0463224  39.4441663 116.9063224  86.3093224  39.0731663
 118.7103224  86.6163224  40.2111663 118.8393224  85.5553224  40.4291663
 120.1663224  88.2483224  43.5301663 118.9643224  88.3713224  43.8061663
 121.0883224  89.1773224  43.7661663 122.0553224  88.8953224  43.6911663
 120.7713224  90.5773224  44.1261663 119.7813224  90.6013224  44.5821663
 121.8883224  91.1423224  45.0331663 121.8553224  92.2313224  45.0161663
 122.8613224  90.8383224  44.6451663 121.8223224  90.7093224  46.4811663
 120.6543224  90.8533224  47.2211663 119.7743224  91.3093224  46.7671663
 120.5893224  90.4183224  48.5541663 119.6673224  90.5373224  49.1221663
 121.7033224  89.8463224  49.1531663 121.6513224  89.4163224  50.4581663
 122.3543224  88.7213224  50.6031663 122.8603224  89.6793224  48.4281663
 123.7353224  89.2103224  48.8801663 122.9093224  90.1183224  47.0981663
 123.8413224  89.9833224  46.5481663 120.7583224  91.4273224  42.8701663
 121.5603224  91.1613224  41.9831663 119.9483224  92.4843224  42.7961663
 119.2723224  92.6313224  43.5311663 120.0103224  93.4303224  41.6881663
 120.9673224  93.3083224  41.1831663 118.9803224  93.1353224  40.5731663
 119.1433224  92.1313224  40.1841663 117.5263224  93.2273224  41.1141663
 116.8243224  93.0163224  40.3081663 117.3893224  92.5013224  41.9141663
 117.3443224  94.2303224  41.5001663 119.1783224  94.0263224  39.3601663
 120.2163224  93.9693224  39.0321663 118.9803224  95.0623224  39.6331663
 118.2433224  93.6073224  38.1961663 118.4093224  94.2643224  37.3421663
 118.4583224  92.5773224  37.9091663 117.2053224  93.6863224  38.5171663
 119.9053224  94.8653224  42.2291663 119.0653224  95.1493224  43.1071663
 120.7373224  95.7663224  41.7061663 121.4703224  95.4423224  41.0911663
 120.6243224  97.2113224  41.9931663 119.7443224  97.3723224  42.6171663
 121.8543224  97.7463224  42.7421663 121.8113224  98.8353224  42.7811663
 122.7593224  97.4733224  42.1981663 122.0013224  97.2403224  44.1631663
 121.9123224  96.1543224  44.1731663 121.2063224  97.6583224  44.7821663
 123.3833224  97.6423224  44.7721663 123.3543224  97.5153224  45.8541663
 123.5873224  98.6913224  44.5521663 124.5393224  96.7573224  44.1821663
 124.6663224  96.9833224  43.1231663 124.2763224  95.7053224  44.2771663
 125.9323224  96.8793224  44.7881663 126.5643224  96.2543224  44.3081663
 126.2603224  97.8303224  44.6901663 125.8963224  96.6353224  45.7671663
 120.4373224  98.0223224  40.6881663 121.1883224  97.8363224  39.7321663
 119.4223224  98.8893224  40.6601663 118.7843224  98.8723224  41.4421663
 119.1933224  99.8453224  39.5711663 119.7343224  99.5003224  38.6881663
 117.6623224  99.9423224  39.3411663 117.1733224 100.2423224  40.2681663
 117.2723224  98.9613224  39.0671663 117.2613224 100.9363224  38.2481663
 118.0853224 101.4213224  37.4821663 115.9753224 101.2583224  38.1911663
 115.6513224 101.9033224  37.4981663 115.3303224 100.8563224  38.8401663
 119.7443224 101.2373224  39.9251663 119.2433224 101.8953224  40.8561663
 120.7873224 101.6753224  39.2091663 121.1673224 101.0883224  38.4801663
 121.3933224 102.9913224  39.4581663 121.1923224 103.2753224  40.4911663
 122.8843224 102.9393224  39.2101663 123.2943224 103.9483224  39.2441663
 123.0733224 102.5423224  38.2121663 123.6313224 102.0853224  40.2141663
 123.9183224 102.5853224  41.4861663 123.6243224 103.6013224  41.7521663
 124.5713224 101.8183224  42.4231663 124.7853224 102.2283224  43.4101663
 124.9743224 100.5243224  42.1031663 125.6763224  99.7823224  43.0401663
 126.0553224  98.9753224  42.5941663 124.7083224 100.0133224  40.8411663
 125.0243224  99.0023224  40.5811663 124.0383224 100.7943224  39.9061663
 123.8343224 100.3793224  38.9191663 120.8073224 104.0973224  38.5821663
 121.2153224 105.2493224  38.7021663 119.8703224 103.7473224  37.7041663
 119.6443224 102.7673224  37.6091663 119.1613224 104.7253224  36.8781663
 119.8763224 105.4733224  36.5371663 118.5153224 104.0353224  35.6541663
 118.1683224 104.7933224  34.9501663 117.6453224 103.4643224  35.9761663
 119.4323224 103.0733224  34.8761663 119.8813224 102.3603224  35.5671663
 120.2343224 103.6383224  34.4021663 118.6243224 102.1063224  33.5711663
 118.4993224 103.3573224  32.2591663 118.0223224 102.9193224  31.3821663
 117.9043224 104.1993224  32.6141663 119.4973224 103.7063224  31.9921663
 118.0883224 105.4183224  37.7211663 117.6293224 104.8973224  38.7491663
 117.6683224 106.5773224  37.2611663 118.0523224 106.9463224  36.4031663
 116.6543224 107.3423224  37.9701663 116.9443224 107.4123224  39.0181663
 116.5703224 108.7613224  37.3991663 115.6963224 109.2673224  37.8091663
 116.4423224 108.7113224  36.3181663 117.8213224 109.6133224  37.7081663
 117.6803224 110.6113224  37.2931663 118.6923224 109.1403224  37.2541663
 118.0913224 109.7583224  39.2261663 117.2543224 110.2883224  39.9791663
 119.2613224 109.2933224  39.6691663 119.4913224 109.3593224  40.6411663
 119.9093224 108.8783224  39.0301663 115.2903224 106.6723224  37.9211663
 114.5963224 106.6143224  38.9451663 114.9413224 106.1043224  36.7651663
 115.6533224 106.0713224  36.0501663 113.6143224 105.5383224  36.4811663
 112.8933224 105.9853224  37.1661663 113.1003224 105.9723224  35.0461663
 113.7483224 105.5303224  34.2891663 111.6843224 105.4723224  34.8091663
 111.3503224 105.7803224  33.8181663 111.6663224 104.3843224  34.8751663
 111.0193224 105.8933224  35.5621663 113.1293224 107.5163224  34.9051663
 112.7743224 107.7973224  33.9141663 112.4853224 107.9633224  35.6621663
 114.1503224 107.8753224  35.0401663 113.5963224 104.0003224  36.6861663
 114.5423224 103.2673224  36.2761663 112.5383224 103.5233224  37.3681663
 111.8773224 104.1953224  37.7311663 112.3103224 102.1163224  37.6001663
 113.1873224 101.7013224  38.0981663 111.0903224 101.9613224  38.5371663
 111.2593224 102.5293224  39.4521663 110.9783224 100.9143224  38.8181663
 109.7433224 102.4123224  37.9871663 108.9563224 101.8233224  38.4561663
 109.7163224 102.2173224  36.9151663 109.4303224 103.8813224  38.2011663
 110.3263224 104.7503224  38.4481663 108.2223224 104.1833224  38.1101663
 112.1153224 101.3673224  36.2561663 111.6213224 101.9503224  35.2811663
 112.4633224 100.0693224  36.2341663 112.9993224  99.7203224  37.0161663
 112.1083224  99.1553224  35.1501663 111.3693224  99.6443224  34.5131663
 113.3753224  98.8293224  34.3281663 113.7793224  99.7473224  33.9041663
 113.1123224  98.1743224  33.4991663 114.4803224  98.1583224  35.1121663
 114.4493224  96.7973224  35.3731663 113.6093224  96.2043224  35.0101663
 115.4753224  96.1773224  36.0911663 115.4023224  95.1193224  36.3401663
 116.5953224  96.8973224  36.4941663 117.4113224  96.3943224  37.0111663
 116.6533224  98.2573224  36.2291663 117.5073224  98.8423224  36.5691663
 115.6023224  98.8773224  35.5191663 115.6433224  99.9463224  35.3091663
 111.5063224  97.8803224  35.6701663 111.5783224  97.5983224  36.8651663
 110.8463224  97.1433224  34.7701663 110.8083224  97.4443224  33.8071663
 110.1713224  95.8973224  35.1571663 109.9983224  95.9173224  36.2341663
 108.8223224  95.7663224  34.4441663 108.9873224  95.6093224  33.3791663
 108.2613224  96.6933224  34.5551663 107.9733224  94.6353224  34.9621663
 107.4653224  94.6613224  36.2551663 107.7013224  95.5053224  36.9031663
 106.6593224  93.6303224  36.7401663 106.2663224  93.6783224  37.7551663
 106.3613224  92.5513224  35.9301663 105.7463224  91.7363224  36.3101663
 106.8463224  92.5103224  34.6431663 106.5993224  91.6693224  33.9951663
 107.6563224  93.5383224  34.1551663 108.0353224  93.4953224  33.1331663
 111.0553224  94.7203224  34.8051663 111.3163224  94.4483224  33.6341663
 111.5333224  94.0303224  35.8171663 111.2973224  94.2933224  36.7631663
 112.4153224  92.8693224  35.5931663 113.0503224  93.0783224  34.7321663
 113.2793224  92.6793224  36.8331663 112.6253224  92.5393224  37.6941663
 113.8643224  93.5843224  36.9911663 114.2573224  91.4823224  36.7761663
 113.7013224  90.5683224  36.5671663 115.2493224  91.6083224  35.6231663
 115.9163224  90.7463224  35.6211663 114.7063224  91.6483224  34.6791663
 115.8343224  92.5193224  35.7451663 114.9993224  91.3283224  38.1391663
 115.6843224  90.4813224  38.0871663 115.5613224  92.2373224  38.3521663
 114.2713224  91.1573224  38.9321663 111.5533224  91.6133224  35.3041663
 110.7363224  91.2163224  36.1231663 111.7603224  90.9883224  34.1391663
 112.4143224  91.3553224  33.4621663 111.0223224  89.7343224  33.8271663
 110.0523224  89.7713224  34.3231663 110.7923224  89.5943224  32.3191663
 110.3343224  88.6273224  32.1091663 111.7513224  89.6213224  31.8011663
 109.8943224  90.6773224  31.6851663 109.9813224  90.6323224  30.6001663
 110.2223224  91.6623224  32.0181663 108.4033224  90.5473224  32.0321663
 107.8713224  91.4333224  31.6871663 108.2863224  90.4723224  33.1141663
 107.7453224  89.3393224  31.4081663 108.4063224  88.4773224  31.5001663
 107.5733224  89.5253224  30.3491663 106.4653224  89.0943224  32.1121663
 106.0083224  88.2883224  31.7101663 106.6463224  88.9243224  33.0921663
 105.8673224  89.9023224  32.0161663 111.7423224  88.4923224  34.3361663
 111.1403224  87.6783224  35.0771663 113.0003224  88.3213224  33.9121663
 113.4833224  89.0543224  33.4131663 113.7033224  87.0423224  34.1741663
 113.4593224  86.7133224  35.1851663 113.2563224  85.9743224  33.1621663
 112.1773224  85.8423224  33.2261663 113.7183224  85.0193224  33.4131663
 113.6183224  86.3503224  31.8341663 112.8003224  86.6313224  31.3381663
 115.2183224  87.1743224  34.0891663 115.7803224  88.1303224  33.4901663
 115.8773224  86.1833224  34.6961663 115.3623224  85.6223224  35.3601663
 117.2863224  85.8783224  34.4471663 117.6403224  86.5163224  33.6381663
 118.1413224  86.1453224  35.6991663 117.7103224  85.5983224  36.5371663
 118.1003224  87.2093224  35.9271663 119.6423224  85.7653224  35.6551663
 119.7503224  84.7543224  35.2611663 120.4043224  86.6163224  34.6271663
 121.4543224  86.3253224  34.6201663 119.9783224  86.4573224  33.6361663
 120.3223224  87.6693224  34.8941663 120.3213224  85.8023224  37.0651663
 121.3723224  85.5263224  36.9701663 120.2463224  86.8083224  37.4791663
 119.8193224  85.0983224  37.7291663 117.3603224  84.3933224  34.0491663
 116.6753224  83.5463224  34.6451663 118.1643224  84.0833224  33.0261663
 118.5983224  84.8383224  32.5151663 118.4383224  82.6843224  32.6191663
 118.0033224  82.0163224  33.3631663 117.8053224  82.3433224  31.2191663
 118.2813224  82.9483224  30.4471663 117.9813224  80.8603224  30.8491663
 117.5293224  80.6723224  29.8751663 119.0433224  80.6193224  30.8091663
 117.4963224  80.2383224  31.6001663 116.4223224  82.7393224  31.1991663
 116.3453224  83.7353224  31.3011663 119.9533224  82.4703224  32.5631663
 120.6553224  83.2793224  31.9591663 120.4553224  81.4253224  33.2261663
 119.8133224  80.8443224  33.7471663 121.8803224  81.0923224  33.2281663
 122.4213224  81.8873224  32.7161663 122.4543224  80.9253224  34.6451663
 123.5233224  80.7283224  34.5661663 121.9813224  80.0633224  35.1121663
 122.3073224  82.0763224  35.6341663 121.2513224  82.3143224  35.7611663
 122.8183224  81.6083224  36.9921663 122.7223224  82.4173224  37.7161663
 122.2323224  80.7523224  37.3261663 123.8653224  81.3203224  36.9071663
 123.0473224  83.3333224  35.1151663 122.9313224  84.1463224  35.8331663
 124.1063224  83.1063224  34.9911663 122.6253224  83.6333224  34.1561663
 122.0953224  79.7713224  32.4891663 121.3813224  78.7923224  32.7501663
 123.0583224  79.7393224  31.5771663 123.6563224  80.5403224  31.4361663
 123.2693224  78.5273224  30.7531663 122.4223224  77.8563224  30.9011663
 123.2343224  78.9233224  29.2721663 123.6743224  78.1263224  28.6721663
 123.8373224  79.8183224  29.1201663 121.7793224  79.1893224  28.7981663
 121.1173224  79.1703224  29.6631663 121.4753224  78.3883224  28.1251663
 121.5833224  80.5173224  28.0701663 122.5123224  80.9413224  27.3291663
 120.4903224  81.1283224  28.2501663 124.5183224  77.7083224  31.1091663
 125.5303224  78.2583224  31.5441663 124.4333224  76.3963224  30.9191663
 123.5743224  76.0063224  30.5591663 125.5473224  75.5043224  31.2171663
 126.4303224  76.1173224  31.4051663 125.2483224  74.6793224  32.4601663
 126.0893224  74.0183224  32.6701663 125.0883224  75.3443224  33.3091663
 124.3523224  74.0833224  32.2931663 125.8543224  74.5923224  30.0371663
 126.5773224  73.6053224  30.1741663 125.3013224  74.9283224  28.8761663
 124.7713224  75.7863224  28.8141663 125.4403224  74.0923224  27.6901663
 125.6223224  74.7373224  26.8311663 126.6413224  73.1373224  27.8291663
 126.5503224  72.5723224  28.7561663 126.6853224  72.1653224  26.6601663
 127.5403224  71.4993224  26.7741663 125.7683224  71.5793224  26.6401663
 126.7813224  72.7223224  25.7281663 127.9463224  73.9313224  27.9201663
 127.8383224  74.7263224  28.6601663 128.1523224  74.4053224  26.9611663
 129.1453224  73.0933224  28.3011663 130.0323224  73.7263224  28.3461663
 128.9753224  72.6373224  29.2771663 129.2953224  72.3133224  27.5571663
 124.1753224  73.2833224  27.4351663 123.3633224  73.6363224  26.5791663
 124.0343224  72.1793224  28.1571663 124.7843224  71.8913224  28.7691663
 122.8293224  71.3633224  28.0781663 122.6393224  71.1263224  27.0301663
 123.0283224  70.0633224  28.8341663 123.3263224  70.2813224  29.8591663
 123.8353224  69.4943224  28.3731663 121.8543224  69.2993224  28.8361663
 121.1873224  69.6973224  28.2031663 121.6233224  72.1063224  28.6371663
 121.7133224  72.7663224  29.6721663 120.4933224  71.9953224  27.9451663
 120.4663224  71.3833224  27.1431663 119.2933224  72.7353224  28.3161663
 119.5163224  73.8023224  28.2721663 118.1763224  72.4733224  27.3221663
 117.2303224  72.8163224  27.7391663 118.0883224  71.3993224  27.1491663
 118.4033224  73.1593224  26.0031663 119.1743224  74.1213224  25.9151663
 117.7453224  72.6843224  24.9771663 117.8573224  73.1013224  24.0741663
 117.1313224  71.9043224  25.0941663 118.8453224  72.3873224  29.7291663
 118.4303224  73.2593224  30.4921663 118.9313224  71.1063224  30.0731663
 119.2703224  70.4373224  29.3971663 118.5503224  70.6423224  31.4021663
 117.5233224  70.9553224  31.5961663 118.5973224  69.1143224  31.4701663
 118.4813224  68.7923224  32.5041663 119.5703224  68.7643224  31.1251663
 117.5303224  68.4203224  30.6401663 117.6403224  68.7223224  29.5991663
 116.5483224  68.7143224  31.0121663 117.6333224  66.9093224  30.7111663
 118.7173224  66.3553224  30.9121663 116.5023224  66.2313224  30.5471663
 116.5083224  65.2313224  30.5841663 115.6453224  66.7203224  30.3861663
 119.4533224  71.2393224  32.4741663 119.0813224  71.3043224  33.6461663
 120.6403224  71.6733224  32.0661663 120.8783224  71.6083224  31.0861663
 121.6103224  72.2393224  32.9961663 122.6143224  72.1193224  32.5921663
 121.5743224  71.6913224  33.9381663 121.3323224  73.7153224  33.2491663
 122.1093224  74.3973224  33.9181663 120.2203224  74.2043224  32.7111663
 119.5693224  73.5723224  32.2671663 119.9093224  75.6563224  32.7451663
 120.8373224  76.2123224  32.6081663 118.9293224  75.9773224  31.5841663
 118.0053224  75.4163224  31.7221663 118.5713224  77.4453224  31.4961663
 117.8833224  77.6033224  30.6651663 118.0963224  77.7603224  32.4251663
 119.4753224  78.0313224  31.3341663 119.5363224  75.5493224  30.3531663
 119.2753224  74.6003224  30.1491663 119.3053224  76.0503224  34.0951663
 118.6003224  75.2353224  34.7231663 119.5853224  77.2703224  34.5641663
 120.2073224  77.8733224  34.0451663 119.0063224  77.7533224  35.8201663
 118.4153224  76.9503224  36.2591663 120.0733224  78.1603224  36.8591663
 120.6783224  78.9743224  36.4601663 119.4183224  78.6223224  38.1461663
 120.1873224  78.9043224  38.8651663 118.7813224  79.4813224  37.9421663
 118.8153224  77.8133224  38.5581663 120.9903224  76.9833224  37.1821663
 121.3883224  76.5673224  36.2561663 120.4153224  76.1983224  37.6711663
 122.1863224  77.3563224  38.1001663 122.7933224  76.4693224  38.2851663
 122.7963224  78.1183224  37.6121663 121.8113224  77.7423224  39.0471663
 118.1213224  78.9483224  35.4941663 118.5843224  79.9163224  34.8581663
 116.8463224  78.8743224  35.9081663 116.5523224  78.0923224  36.4751663
 115.8783224  79.8963224  35.5581663 116.3573224  80.6133224  34.8911663
 114.6813224  79.2783224  34.8261663 113.9413224  80.0523224  34.6201663
 114.2073224  78.5353224  35.4661663 115.0713224  78.6283224  33.5391663
 115.8283224  77.8673224  33.7301663 115.4753224  79.3793224  32.8601663
 113.8603224  77.9653224  32.8781663 113.1863224  78.7333224  32.5001663
 113.3363224  77.3523224  33.6111663 114.2803224  77.1153224  31.7651663
 114.3983224  76.1273224  31.9461663 114.5213224  77.5363224  30.5291663
 114.3943224  78.8233224  30.1911663 114.1093224  79.5013224  30.8831663
 114.5833224  79.1173224  29.2441663 114.8953224  76.6533224  29.6081663
 114.9923224  75.6773224  29.8531663 115.0823224  76.9573224  28.6641663
 115.3823224  80.6453224  36.7691663 115.0973224  80.0463224  37.8031663
 115.2193224  81.9553224  36.5941663 115.4963224  82.3423224  35.7031663
 114.6673224  82.8443224  37.6161663 114.3263224  82.2373224  38.4561663
 115.7263224  83.8853224  38.0761663 115.3093224  84.5013224  38.8721663
 115.9713224  84.5463224  37.2451663 117.0293224  83.2873224  38.5901663
 117.9553224  82.7133224  37.7091663 117.7473224  82.7213224  36.6391663
 119.1213224  82.1423224  38.1871663 119.7993224  81.6333224  37.5021663
 119.4043224  82.2293224  39.5301663 120.3413224  81.8323224  39.9171663
 118.4973224  82.8223224  40.4021663 118.7233224  82.8783224  41.4671663
 117.3433224  83.3263224  39.9451663 116.6383224  83.7893224  40.6371663
 113.5053224  83.5943224  36.9941663 113.7173224  84.3413224  36.0371663
 112.2993224  83.3893224  37.5391663 112.2433224  82.6973224  38.2731663
 111.0753224  84.1053224  37.1321663 111.2083224  84.4663224  36.1111663
 109.8023224  83.1923224  37.2071663 109.5663224  82.9993224  38.2541663
 108.5423224  83.9173224  36.6531663 107.6803224  83.2533224  36.7221663
 108.3533224  84.8173224  37.2381663 108.7073224  84.1883224  35.6111663
 110.0353224  81.8633224  36.5011663 109.1363224  81.2523224  36.5701663
 110.2713224  82.0453224  35.4521663 110.8663224  81.3403224  36.9751663
 110.9373224  85.2273224  38.1481663 110.8663224  84.9493224  39.3631663
 110.9783224  86.4813224  37.6811663 110.9883224  86.6453224  36.6841663
 111.0093224  87.6453224  38.6071663 111.1623224  87.2763224  39.6211663
 112.1863224  88.5313224  38.2301663 112.2393224  89.3763224  38.9161663
 112.0333224  88.9323224  37.2281663 113.8133224  87.6553224  38.2621663
 113.7373224  86.8333224  37.7091663 109.7213224  88.4533224  38.6041663
 109.0783224  88.6143224  39.6491663 109.3463224  88.9653224  37.4251663
 109.9383224  88.7783224  36.6291663 108.1453224  89.7653224  37.2421663
 108.2383224  90.3203224  36.3071663 106.9223224  88.8093224  37.0731663
 106.0003224  89.3903224  37.1011663 106.8923224  88.1063224  37.9061663
 106.9753224  88.0273224  35.7671663 107.4233224  88.5623224  34.7151663
 106.5083224  86.7763224  35.8041663 106.5173224  86.2143224  34.9761663
 106.1493224  86.4023224  36.6581663 107.9303224  90.8253224  38.3231663
 106.9153224  90.8333224  39.0231663 108.9153224  91.7193224  38.4461663
 109.6653224  91.7343224  37.7701663 108.9293224  92.6883224  39.5531663
 107.9003224  92.8773224  39.8611663 109.6193224  92.0923224  40.7781663
 110.6483224  91.8373224  40.5281663 109.1153224  91.1703224  41.0671663
 109.6213224  92.9883224  41.8911663 108.6923224  93.0733224  42.2441663
 109.5443224  94.0233224  39.1431663 110.6213224  94.0883224  38.4731663
 108.9043224  95.1203224  39.5881663 108.0063224  95.0393224  40.0421663
 109.5083224  96.4633224  39.4181663 109.8333224  96.5683224  38.3831663
 108.4773224  97.5603224  39.6891663 108.9783224  98.5273224  39.7361663
 108.0083224  97.3873224  40.6581663 107.3943224  97.6333224  38.6391663
 106.1913224  97.0203224  38.6731663 105.8243224  96.4143224  39.4991663
 105.4913224  97.2723224  37.5071663 104.5713224  96.9193224  37.2851663
 106.2463224  98.0753224  36.7061663 105.9653224  98.6153224  35.4491663
 105.0173224  98.4373224  34.9411663 106.9393224  99.3933224  34.8641663
 106.7553224  99.8333224  33.8831663 108.1923224  99.6353224  35.5201663
 108.9643224 100.2393224  35.0421663 108.4553224  99.1073224  36.7791663
 109.4053224  99.3003224  37.2761663 107.4673224  98.3233224  37.3941663
 110.7263224  96.6683224  40.3131663 110.7053224  96.3213224  41.4981663
 111.7973224  97.2123224  39.7301663 111.7583224  97.4153224  38.7411663
 113.0143224  97.5213224  40.4711663 112.8723224  97.2203224  41.5101663
 114.2233224  96.7153224  39.9341663 114.4213224  97.0173224  38.9051663
 115.4833224  97.0253224  40.7181663 116.3143224  96.4443224  40.3171663
 115.7113224  98.0883224  40.6351663 115.3333224  96.7653224  41.7661663
 113.9263224  95.1413224  39.9661663 114.7913224  94.6003224  39.5831663
 113.7273224  94.8293224  40.9911663 113.0573224  94.9223224  39.3451663
 113.2523224  99.0253224  40.3691663 113.6503224  99.5463224  39.3121663
 113.0633224  99.7093224  41.4991663 112.8043224  99.1973224  42.3301663
 113.2173224 101.1683224  41.5771663 112.9103224 101.6003224  40.6241663
 112.3403224 101.7583224  42.6951663 112.7473224 102.7193224  43.0081663
 112.3613224 101.0963224  43.5621663 110.9223224 101.9493224  42.2641663
 110.0713224 100.8603224  42.0521663 110.4343224  99.8453224  42.2131663
 108.7573224 101.0453224  41.6361663 108.1103224 100.1833224  41.4761663
 108.2583224 102.3083224  41.4841663 106.9613224 102.4793224  41.0771663
 106.6883224 103.4283224  41.2331663 109.0483224 103.4073224  41.7221663
 108.6473224 104.4133224  41.5951663 110.3713224 103.2293224  42.1281663
 110.9783224 104.1093224  42.3401663 114.7043224 101.4963224  41.8251663
 115.5313224 100.5803224  42.0731663 115.0393224 102.7933224  41.7891663
 114.3333224 103.4773224  41.5591663 116.3953224 103.2413224  42.0731663
 117.0623224 102.8263224  41.3161663 116.4633224 104.7633224  42.0641663
 115.7413224 105.1643224  42.7751663 116.1903224 105.1343224  41.0751663
 117.8403224 105.2743224  42.4191663 118.0753224 105.6553224  43.5751663
 118.7913224 105.2213224  41.4481663 119.7173224 105.5483224  41.6371663
 118.5643224 104.8553224  40.5461663 116.8753224 102.7163224  43.4411663
 116.1273224 102.7453224  44.4411663 118.1263224 102.2803224  43.4721663
 118.6833224 102.3863224  42.6361663 118.7253224 101.6603224  44.6531663
 118.1953224 100.7303224  44.8621663 120.1733224 101.2253224  44.3391663
 120.1763224 100.5783224  43.4621663 121.0533224 102.4283224  44.0671663
 122.0673224 102.0953224  43.8481663 120.6603224 102.9813224  43.2141663
 121.0653224 103.0753224  44.9431663 120.6713224 100.4463224  45.4231663
 120.1213224 100.6013224  46.2521663 118.6323224 102.4733224  45.9651663
 118.4613224 101.9003224  47.0341663 118.6193224 103.8033224  45.8771663
 118.6273224 104.2523224  44.9721663 118.5933224 104.6313224  47.0831663
 119.3203224 104.2333224  47.7921663 118.9853224 106.0783224  46.7501663
 118.9873224 106.6743224  47.6631663 118.2433224 106.5113224  46.0791663
 120.3743224 106.2063224  46.0841663 120.3363224 105.7833224  45.0801663
 121.1103224 105.6503224  46.6661663 120.8573224 107.6473224  45.9701663
 121.9243224 107.6573224  45.7471663 120.6983224 108.1613224  46.9191663
 120.1183224 108.4103224  44.8671663 119.0753224 108.5463224  45.1541663
 120.1453224 107.8323224  43.9441663 120.7603224 109.7423224  44.6501663
 120.2673224 110.2393224  43.9221663 120.7243224 110.2773224  45.5061663
 121.7233224 109.6113224  44.3751663 117.2503224 104.6283224  47.8081663
 117.1583224 105.0913224  48.9521663 116.2003224 104.1433224  47.1291663
 116.3613224 103.7803224  46.2001663 114.8523224 104.1213224  47.6751663
 114.7183224 105.0023224  48.3021663 113.8153224 104.1683224  46.5241663
 112.8233224 104.0033224  46.9431663 114.0313224 103.3593224  45.8281663
 113.7543224 105.4633224  45.7091663 114.7463224 105.6973224  45.3221663
 112.8933224 105.3343224  44.4171663 112.8913224 106.2853224  43.8851663
 113.3153224 104.5613224  43.7741663 111.8723224 105.0663224  44.6861663
 113.2683224 106.6353224  46.6021663 113.2293224 107.5513224  46.0111663
 112.2743224 106.4103224  46.9881663 113.9593224 106.7693224  47.4351663
 114.6183224 102.8823224  48.5401663 113.5803224 102.7873224  49.2171663
 115.5283224 101.9143224  48.4851663 116.3633224 102.0693224  47.9391663
 115.3603224 100.6393224  49.1851663 114.3173224 100.5473224  49.4911663
 115.7213224  99.4943224  48.2421663 115.8263224  98.5723224  48.8131663
 116.6833224  99.7003224  47.7711663 114.7413224  99.2003224  47.1181663
 113.3873224  98.9703224  47.3501663 112.9913224  99.0253224  48.3641663
 112.5133224  98.6663224  46.2961663 111.4573224  98.4893224  46.4981663
 113.0073224  98.5553224  45.0181663 112.1383224  98.2323224  43.9741663
 111.2283224  98.5633224  44.2041663 114.3503224  98.7853224  44.7801663
 114.7353224  98.7323224  43.7611663 115.1963224  99.0773224  45.8181663
 116.2553224  99.2123224  45.5961663 116.2123224 100.5553224  50.4771663
 117.4013224 100.8963224  50.4781663 115.6163224 100.0623224  51.5621663
 114.6343224  99.8283224  51.5441663 116.3793224  99.8523224  52.7991663
 117.1363224 100.6343224  52.8761663 115.4873224 100.0423224  54.0401663
 116.0603224  99.8133224  54.9391663 114.6513224  99.3433224  53.9981663
 114.9163224 101.4633224  54.1861663 114.6003224 101.6243224  55.2161663
 114.0473224 101.5753224  53.5361663 115.9563224 102.5093224  53.8141663
 116.2413224 102.3833224  52.7701663 116.8443224 102.3763224  54.4341663
 115.4793224 103.9243224  53.9911663 115.3543224 104.1363224  55.0531663
 114.5133224 104.0463224  53.5041663 116.4863224 104.8293224  53.3921663
 116.1853224 105.7873224  53.5001663 117.3743224 104.7013224  53.8571663
 116.5873224 104.6183224  52.4101663 117.1363224  98.5133224  52.8351663
 117.9653224  98.3123224  53.7091663 116.8473224  97.6023224  51.9081663
 115.9973224  97.6953224  51.3701663 117.7333224  96.4673224  51.6491663
 118.7573224  96.7703224  51.8701663 117.3923224  95.2973224  52.5751663
 117.2473224  95.6663224  53.5891663 118.2263224  94.5963224  52.5981663
 116.2213224  94.6363224  52.1331663 116.3833224  94.2373224  51.2311663
 117.6483224  96.0493224  50.1681663 116.6463224  96.3083224  49.4881663
 118.7153224  95.4253224  49.6791663 119.4463224  95.1143224  50.3021663
 118.8493224  95.1813224  48.2521663 118.6743224  96.1183224  47.7231663
 120.2993224  94.7453224  47.8991663 120.5043224  93.7833224  48.3691663
 120.4363224  94.5033224  46.3831663 121.4583224  94.1983224  46.1541663
 119.7463224  93.7173224  46.0761663 120.2033224  95.4223224  45.8451663
 121.3683224  95.7833224  48.4051663 122.3663224  95.4373224  48.1371663
 121.1833224  96.7523224  47.9411663 121.2973224  95.8803224  49.4881663
 117.8023224  94.1323224  47.7621663 117.5193224  93.1253224  48.4271663
 117.2033224  94.3713224  46.5991663 117.3853224  95.2383224  46.1141663
 116.2803224  93.3983224  46.0021663 115.4413224  93.2543224  46.6831663
 115.7323224  93.8783224  44.6531663 115.1423224  93.0833224  44.1961663
 116.5613224  94.0983224  43.9811663 114.8433224  95.1463224  44.7711663
 114.4443224  95.4043224  43.7891663 115.4413224  95.9763224  45.1491663
 113.6333224  94.9603224  45.7361663 112.9733224  95.8243224  45.6621663
 113.9953224  94.8673224  46.7591663 112.8013224  93.7703224  45.4731663
 112.9043224  92.9783224  46.0941663 111.9193224  93.6493224  44.4801663
 111.7243224  94.6653224  43.6251663 112.2463224  95.5233224  43.7331663
 111.0563224  94.5723224  42.8741663 111.2683224  92.5223224  44.3391663
 111.4373224  91.7573224  44.9781663 110.5983224  92.4173224  43.5921663
 116.9463224  92.0193224  45.7761663 118.0333224  91.9363224  45.1841663
 116.2393224  90.9643224  46.1721663 115.3363224  91.1433224  46.5891663
 116.6983224  89.5873224  46.0351663 117.6243224  89.5873224  45.4611663
 117.0303224  88.9303224  47.4361663 117.7793224  89.5313224  47.9511663
 115.8053224  88.8313224  48.3401663 116.0883224  88.3733224  49.2871663
 115.4073224  89.8283224  48.5241663 115.0433224  88.2203224  47.8551663
 117.6903224  87.5383224  47.2611663 118.5163224  87.6133224  46.5531663
 116.9643224  86.8423224  46.8421663 118.2193224  86.9523224  48.5291663
 118.6653224  85.9793224  48.3221663 118.9753224  87.6163224  48.9491663
 117.4043224  86.8333224  49.2421663 115.6483224  88.7553224  45.2851663
 114.4373224  88.8823224  45.5411663 116.1243224  87.8813224  44.3941663
 117.1233224  87.8653224  44.2481663 115.2743224  86.9583224  43.6291663
 114.2763224  86.9613224  44.0691663 115.1963224  87.4403224  42.1771663
 114.6833224  86.6933224  41.5731663 116.2033224  87.5493224  41.7761663
 114.4833224  88.7433224  42.0191663 113.0953224  88.7963224  41.9411663
 112.5243224  87.8683224  41.9741663 112.4623224  90.0343224  41.8231663
 111.3753224  90.0873224  41.7721663 113.1963224  91.2053224  41.7701663
 112.6883224  92.1643224  41.6771663 114.5653224  91.1623224  41.8331663
 115.1413224  92.0863224  41.7871663 115.2023224  89.9273224  41.9551663
 116.2903224  89.8783224  42.0061663 115.8113224  85.5343224  43.6791663
 117.0123224  85.3553224  43.5971663 114.9563224  84.5323224  43.8481663
 113.9853224  84.7953224  43.9441663 115.3223224  83.1083224  43.9021663
 116.3803224  83.0323224  44.1571663 114.5343224  82.4093224  45.0361663
 114.7553224  81.3433224  45.0281663 113.4653224  82.5233224  44.8601663
 114.8423224  82.9433224  46.4161663 114.1163224  83.9793224  46.9581663
 113.3023224  84.4183224  46.3811663 114.3933224  84.4803224  48.2221663
 113.7913224  85.2923224  48.6301663 115.4413224  83.9483224  48.9751663
 115.6663224  84.3543224  49.9601663 116.1763224  82.9113224  48.4491663
 117.0023224  82.4853224  49.0191663 115.8573224  82.4053224  47.1731663
 116.4373224  81.5833224  46.7521663 115.1253224  82.3883224  42.5611663
 114.2493224  82.7653224  41.7611663 115.9303224  81.3393224  42.3191663
 116.7263224  81.1923224  42.9241663 115.6923224  80.4063224  41.2121663
 115.6653224  80.9803224  40.2861663 116.8353224  79.3543224  41.1081663
 116.6313224  78.6763224  40.2791663 117.7833224  79.8633224  40.9361663
 116.8913224  78.7863224  42.0351663 114.3583224  79.7073224  41.3771663
 113.7413224  79.7703224  42.4511663 113.8843224  79.0693224  40.3021663
 114.4563224  78.9473224  39.4791663 112.5253224  78.5383224  40.3081663
 111.8933224  79.2113224  40.8891663 111.9683224  78.5063224  38.8691663
 112.1243224  79.4763224  38.3971663 110.8933224  78.3263224  38.8991663
 112.6153224  77.4393224  38.0121663 113.6323224  76.8643224  38.3841663
 112.0303224  77.1853224  36.8391663 112.4123224  76.4903224  36.2291663
 111.2103224  77.6893224  36.5701663 112.3313224  77.1483224  41.0001663
 111.3453224  76.4653224  40.7621663 113.2683224  76.7263224  41.8501663
 114.1303224  77.2403224  41.9591663 113.0583224  75.5053224  42.6401663
 112.6703224  74.7173224  41.9951663 114.3753224  75.0213224  43.2251663
 114.2273224  74.0523224  43.7001663 114.7083224  75.7173224  43.9961663
 115.4603224  74.8883224  42.2081663 116.6603224  75.5573224  42.3251663
 117.4163224  75.2733224  41.2771663 118.4093224  75.6783224  41.0781663
 116.7663224  74.4123224  40.5101663 117.1123224  74.0043224  39.6541663
 115.5363224  74.1603224  41.0661663 114.7703224  73.4933224  40.6681663
 112.0343224  75.6943224  43.7661663 111.8853224  76.7663224  44.2871663
 111.3513224  74.6173224  44.1481663 111.6033224  73.7483224  43.7001663
 110.2753224  74.6193224  45.1621663 110.0613224  75.6523224  45.4371663
 108.9843224  73.9873224  44.6101663 109.1533224  72.9283224  44.4131663
 107.8333224  74.1223224  45.5951663 106.9383224  73.6653224  45.1731663
 108.0923224  73.6213224  46.5281663 107.6443224  75.1773224  45.7901663
 108.6413224  74.6453224  43.3861663 109.0003224  74.1313224  42.5991663
 110.7353224  73.8593224  46.4041663 111.1913224  72.7173224  46.2761663
 110.6513224  74.5023224  47.5711663 110.3223224  75.4573224  47.5471663
 111.0083224  73.8983224  48.8681663 110.9853224  72.8133224  48.7621663
 112.4083224  74.3673224  49.3571663 112.7193224  73.7593224  50.2061663
 112.3463224  75.4013224  49.7001663 113.5373224  74.3123224  48.3461663
 114.0813224  73.0853224  47.9581663 113.6943224  72.1583224  48.3821663
 115.1103224  73.0203224  47.0391663 115.5213224  72.0533224  46.7491663
 115.6223224  74.1653224  46.5091663 116.6613224  74.0703224  45.6131663
 116.4303224  74.5813224  44.7871663 115.1233224  75.3913224  46.8901663
 115.5553224  76.3093224  46.4901663 114.0593224  75.4563224  47.7951663
 113.6453224  76.4283224  48.0631663 110.0323224  74.2303224  50.0031663
 109.7783224  75.4453224  50.2811663 109.5483224  73.2123224  50.7031663
 109.5263224  72.2843224  50.3051663 109.0463224  73.4153224  52.0411663
 108.2693224  74.1803224  52.0071663 108.3743224  72.1693224  52.6421663
 107.9233224  72.4363224  53.5981663 107.1983224  71.6863224  51.7671663
 106.7453224  70.8043224  52.2211663 106.4533224  72.4773224  51.6901663
 107.5643224  71.4343224  50.7721663 109.3603224  71.0023224  52.8931663
 108.8213224  70.1563224  53.3181663 109.8193224  70.7043224  51.9501663
 110.1363224  71.3243224  53.5881663 110.2403224  73.8763224  52.9091663
 111.4043224  73.6273224  52.5391663 109.9613224  74.5383224  54.0591663
 108.6743224  74.8983224  54.6631663 107.9393224  75.2253224  53.9121663
 108.2673224  74.0793224  55.2741663 109.0273224  76.0413224  55.5401663
 109.1483224  76.9943224  55.0041663 108.3043224  76.2223224  56.3491663
 110.3343224  75.5993224  56.1061663 110.9163224  76.4183224  56.5531663
 110.2363224  74.8183224  56.8741663 111.0643224  75.0453224  54.8911663
 111.5793224  75.8563224  54.3551663 112.1343224  74.0493224  55.3181663
 113.3213224  74.4313224  55.2861663 111.7803224  72.8133224  55.6741663
 110.8043224  72.5523224  55.6781663 112.7893224  71.8183224  56.0631663
 113.4703224  72.2783224  56.7801663 112.1413224  70.6173224  56.7511663
 111.6033224  70.9523224  57.6371663 112.9163224  69.9253224  57.0801663
 111.2363224  69.9203224  55.9041663 111.7133224  69.6343224  55.0751663
 113.6293224  71.3343224  54.8821663 114.6063224  70.6143224  55.1051663
 113.2433224  71.6863224  53.6481663 112.3983224  72.2313224  53.5531663
 113.9923224  71.3153224  52.4441663 114.7233224  70.5523224  52.7131663
 113.0653224  70.7103224  51.3901663 113.6263224  70.5293224  50.4731663
 112.2713224  71.4193224  51.1541663 112.4193224  69.4063224  51.8091663
 111.6283224  69.1613224  51.1021663 111.9643224  69.5373224  52.7901663
 113.4113224  68.2663224  51.8721663 114.2243224  68.1523224  50.9351663
 113.3363224  67.4873224  52.8361663 114.7913224  72.4633224  51.8111663
 115.5003224  72.2313224  50.8061663 114.7203224  73.6673224  52.3961663
 114.0873224  73.8003224  53.1711663 115.5343224  74.7913224  51.9421663
 115.3093224  74.9803224  50.8921663 115.3003224  76.0773224  52.7671663
 115.6863224  75.9373224  53.7771663 116.0103224  77.3103224  52.1351663
 115.8203224  78.1923224  52.7461663 117.0833224  77.1263224  52.0861663
 115.6243224  77.4763224  51.1301663 113.9003224  76.3203224  52.8861663
 113.5183224  75.8083224  53.6641663 117.0163224  74.4443224  52.0731663
 117.4913224  74.0203224  53.1391663 117.7613224  74.6103224  50.9741663
 117.4103224  74.8983224  49.5691663 116.5783224  74.2683224  49.2211663
 117.1753224  75.9633224  49.4281663 118.6323224  74.5603224  48.8161663
 118.6153224  73.5253224  48.4451663 118.7703224  75.2093224  47.9391663
 119.7873224  74.7503224  49.8001663 120.6423224  74.0893224  49.5921663
 120.1733224  75.7803224  49.8151663 119.1673224  74.3973224  51.1721663
 119.3433224  73.3373224  51.4061663 119.7183224  75.2993224  52.3091663
 119.3433224  76.4733224  52.3881663 120.5793224  74.7593224  53.1671663
 120.9173224  73.8213224  53.0051663 121.0493224  75.4943224  54.3431663
 120.2063224  75.6203224  55.0231663 122.1123224  74.6803224  55.1261663
 122.4423224  75.2523224  55.9941663 121.6773224  73.7373224  55.4571663
 122.9643224  74.4793224  54.4791663 121.5673224  76.9463224  54.0451663
 121.2533224  77.8553224  54.7931663 122.3323224  77.1543224  52.9481663
 123.0303224  76.1543224  52.1161663 123.2923224  75.2493224  52.6831663
 122.4533224  75.8953224  51.2161663 124.2593224  76.8603224  51.7241663
 125.0493224  76.7633224  52.4841663 124.6743224  76.4713224  50.7831663
 123.8773224  78.2723224  51.5651663 124.7303224  78.9583224  51.6771663
 123.4233224  78.4813224  50.5851663 122.8543224  78.5203224  52.6821663
 123.3633224  78.8943224  53.5821663 121.7893224  79.5523224  52.2621663
 122.1103224  80.7543224  52.1791663 120.5593224  79.1043224  52.0181663
 120.3853224  78.1113224  52.0771663 119.4563224  80.0023224  51.6691663
 119.8713224  80.9753224  51.4081663 118.7343224  79.4953224  50.4231663
 117.9353224  80.1943224  50.1761663 118.2863224  78.5293224  50.6501663
 119.5063224  79.2873224  49.1211663 120.2173224  78.4703224  49.2461663
 118.5583224  78.8893224  47.9931663 119.1263224  78.7453224  47.0741663
 118.0513224  77.9603224  48.2541663 117.8203224  79.6763224  47.8431663
 120.3023224  80.6073224  48.7251663 120.8463224  80.4393224  47.7951663
 119.5993224  81.4293224  48.5901663 121.0073224  80.8583224  49.5181663
 118.4673224  80.2343224  52.8161663 117.5463224  81.0473224  52.6701663
 118.6113224  79.5253224  53.9431663 119.4293224  78.9473224  54.0731663
 117.5673224  79.5753224  55.0281663 116.6163224  79.2463224  54.6081663
 117.9043224  78.6113224  56.1981663 118.9373224  78.7753224  56.5061663
 117.0823224  78.9443224  57.4611663 117.3443224  78.2493224  58.2601663
 117.3023224  79.9633224  57.7801663 116.0193224  78.8543224  57.2371663
 117.7333224  77.1393224  55.7531663 117.9743224  76.4773224  56.5851663
 116.7023224  76.9703224  55.4411663 118.4033224  76.9313224  54.9181663
 117.3573224  80.9703224  55.6071663 116.2203224  81.4463224  55.7001663
 118.4443224  81.6553224  55.9381663 119.3513224  81.2323224  55.8061663
 118.3623224  83.0133224  56.4921663 117.6303224  83.0133224  57.3011663
 119.7083224  83.3993224  57.1241663 120.4383224  83.5913224  56.3371663
 120.0823224  82.5673224  57.7211663 119.6153224  84.6333224  58.0141663
 118.6803224  84.5963224  58.5711663 119.5963224  85.5223224  57.3841663
 120.7783224  84.7523224  58.9951663 121.8303224  84.0593224  58.8261663
 120.6403224  85.5603224  59.9461663 117.8913224  84.0593224  55.4591663
 117.0983224  84.9523224  55.7841663 118.3463224  83.9463224  54.2111663
 119.0343224  83.2443224  53.9801663 117.8533224  84.8423224  53.1531663
 118.0533224  85.8723224  53.4511663 118.5183224  84.5683224  51.7851663
 118.0373224  85.1753224  51.0191663 118.3733224  83.5213224  51.5131663
 120.0073224  84.8433224  51.6891663 120.5503224  86.0293224  52.1511663
 119.9093224  86.7763224  52.6211663 121.8853224  86.2953224  52.0341663
 122.2883224  87.2373224  52.4061663 122.7683224  85.3353224  51.5141663
 124.1413224  85.6063224  51.4211663 124.5983224  84.7973224  51.0681663
 122.2603224  84.1313224  51.0651663 122.9213224  83.3723224  50.6461663
 120.8893224  83.8923224  51.1501663 120.5063224  82.9393224  50.7841663
 116.3503224  84.6803224  52.9781663 115.6203224  85.6663224  52.7951663
 115.8593224  83.4373224  52.9981663 116.4983224  82.6613224  53.0921663
 114.4163224  83.1683224  52.8871663 114.0673224  83.5463224  51.9261663
 114.1973224  81.6263224  52.8681663 114.6973224  81.1773224  53.7261663
 114.6473224  81.2063224  51.9701663 112.7743224  81.1273224  52.9001663
 112.2373224  81.5033224  52.0291663 112.2853224  81.4803224  53.8081663
 112.6913224  79.6073224  52.8831663 113.1723224  79.2073224  53.7751663
 113.1963224  79.2253224  51.9961663 111.3263224  79.1653224  52.8601663
 110.6583224  79.6713224  53.4271663 110.8453224  78.1423224  52.1571663
 111.6383224  77.3353224  51.4491663 112.6363224  77.4923224  51.4361663
 111.2413224  76.5683224  50.9271663 109.5323224  77.9293224  52.1881663
 108.9343224  78.5353224  52.7331663 109.1333224  77.1633224  51.6671663
 113.6163224  83.8673224  53.9931663 112.5913224  84.5413224  53.7251663
 114.0663224  83.7103224  55.2371663 114.8973224  83.1623224  55.4081663
 113.3723224  84.3223224  56.3681663 112.3103224  84.0883224  56.2901663
 113.8943224  83.7243224  57.6901663 114.9553224  83.9513224  57.7981663
 113.7933224  82.6393224  57.6641663 113.1623224  84.2423224  58.9611663
 113.4443224  85.2803224  59.1321663 113.4913224  83.6583224  59.8201663
 111.5893224  84.1853224  58.9491663 110.9373224  83.2223224  58.4061663
 111.0183224  85.1523224  59.5231663 113.4883224  85.8613224  56.3941663
 112.5213224  86.5673224  56.7161663 114.6703224  86.3753224  56.0721663
 115.4543224  85.7743224  55.8621663 114.8513224  87.8383224  56.0171663
 114.5753224  88.2573224  56.9851663 116.3343224  88.1663224  55.8181663
 116.4433224  89.2233224  55.5741663 116.7233224  87.5943224  54.9761663
 117.1373224  87.8403224  57.0821663 118.1993224  87.8633224  56.8411663
 116.8883224  86.8303224  57.4081663 116.8613224  88.8193224  58.2461663
 116.5153224  89.9953224  57.9731663 117.0003224  88.4203224  59.4331663
 113.9723224  88.5243224  54.9731663 113.4563224  89.6283224  55.2211663
 113.7433224  87.8543224  53.8401663 114.1913224  86.9633224  53.6831663
 112.8523224  88.3903224  52.8201663 113.1563224  89.4133224  52.5981663
 113.0403224  87.6313224  51.4931663 112.8813224  86.5653224  51.6581663
 114.0643224  87.7583224  51.1431663 112.1263224  88.0433224  50.3461663
 111.0913224  87.9803224  50.6801663 112.2563224  87.3423224  49.5221663
 112.3273224  89.4573224  49.7601663 113.1813224  90.2383224  50.2441663
 111.5793224  89.7703224  48.7871663 111.4063224  88.4083224  53.3361663
 110.7073224  89.3993224  53.1351663 110.9593224  87.3863224  54.0521663
 111.5333224  86.5653224  54.1851663 109.6233224  87.4323224  54.6631663
 108.8903224  87.6133224  53.8781663 109.2563224  86.0653224  55.2961663
 108.3683224  86.1953224  55.9141663 110.0763224  85.7483224  55.9381663
 108.9673224  84.9073224  54.3451663 109.8063224  84.7803224  53.6611663
 108.8623224  83.5773224  55.1081663 108.6563224  82.7703224  54.4051663
 109.8023224  83.3783224  55.6231663 108.0543224  83.6383224  55.8371663
 107.7063224  85.1563224  53.5171663 107.5343224  84.3093224  52.8521663
 106.8513224  85.2733224  54.1831663 107.8323224  86.0633224  52.9251663
 109.4893224  88.5853224  55.7061663 108.5093224  89.3283224  55.6921663
 110.4853224  88.7483224  56.5921663 111.2403224  88.0773224  56.6191663
 110.5023224  89.8903224  57.5321663 109.6323224  89.8133224  58.1851663
 111.7573224  89.8223224  58.4281663 112.6483224  89.9703224  57.8181663
 111.8293224  88.8323224  58.8781663 111.8123224  90.8363224  59.5591663
 110.8673224  90.8273224  60.1021663 111.9653224  91.8343224  59.1461663
 112.9743224  90.5183224  60.5591663 113.8003224  90.0543224  60.0211663
 112.6203224  89.8203224  61.3191663 113.5143224  91.7703224  61.2741663
 112.7133224  92.2353224  61.8481663 113.8643224  92.4883224  60.5341663
 114.6543224  91.4233224  62.2071663 114.9863224  92.2623224  62.6611663
 114.3313224  90.7683224  62.9061663 115.4073224  91.0063224  61.6791663
 110.4023224  91.2643224  56.8001663 109.6603224  92.1583224  57.2071663
 111.1073224  91.4053224  55.6891663 111.7133224  90.6533224  55.3931663
 111.0323224  92.6223224  54.8781663 111.3113224  93.4723224  55.5021663
 112.0253224  92.5383224  53.6991663 111.8453224  91.6233224  53.1361663
 113.0433224  92.4903224  54.0841663 111.9123224  93.6553224  52.8201663
 112.6963224  93.6693224  52.2031663 109.6103224  92.8493224  54.3601663
 109.0833224  93.9613224  54.4391663 108.9743224  91.7923224  53.8651663
 109.4323224  90.8923224  53.8381663 107.6033224  91.9133224  53.3511663
 107.5813224  92.7113224  52.6101663 107.2003224  90.6103224  52.6411663
 106.1243224  90.6263224  52.4701663 107.4303224  89.7723224  53.2971663
 107.8743224  90.3403224  51.2981663 108.9233224  90.6313224  51.3521663
 107.9113224  88.8573224  50.8881663 108.4073224  88.7593224  49.9221663
 108.4603224  88.2863224  51.6371663 106.8943224  88.4753224  50.8131663
 107.1723224  91.1593224  50.1881663 107.6563224  90.9643224  49.2311663
 106.1233224  90.8683224  50.1301663 107.2423224  92.2223224  50.4211663
 106.5673224  92.2793224  54.4251663 105.5243224  92.8273224  54.1031663
 106.8213224  91.9073224  55.6781663 107.6953224  91.4433224  55.8811663
 105.8773224  92.1503224  56.7621663 104.8693224  91.9553224  56.3941663
 106.1403224  91.1783224  57.9131663 105.6153224  91.5203224  58.8051663
 107.2043224  91.1673224  58.1441663 105.6833224  89.7303224  57.5861663
 106.3793224  89.2803224  56.8771663 104.6843224  89.7533224  57.1501663
 105.6453224  88.8553224  58.8671663 105.1563224  87.9073224  58.6461663
 105.0903224  89.3763224  59.6471663 106.9623224  88.5443224  59.4091663
 107.3863224  89.2203224  60.0301663 107.6783224  87.4303224  59.1601663
 107.2613224  86.4823224  58.2951663 106.3833224  86.5943224  57.8071663
 107.8263224  85.6613224  58.1351663 108.8453224  87.2373224  59.7951663
 109.1813224  87.9253224  60.4551663 109.3873224  86.4053224  59.6141663
 105.8963224  93.5993224  57.2761663 104.9143224  94.1343224  57.7961663
 107.0723224  94.2193224  57.2041663 107.8773224  93.7633224  56.8001663
 107.2093224  95.5933224  57.7201663 106.4433224  96.2273224  57.2751663
 108.1763224  95.9993224  57.4221663 107.0823224  95.6123224  59.2441663
 107.2343224  94.5633224  59.9171663 106.7433224  96.7673224  59.8021663
 106.5393224  97.5723224  59.2281663 106.6593224  96.8913224  61.2681663
 106.7303224  95.8943224  61.7041663 107.8653224  97.6803224  61.8541663
 108.7963224  97.1983224  61.5541663 107.8213224  97.6563224  62.9441663
 107.9043224  99.1403224  61.4001663 106.8863224  99.7223224  60.9911663
 109.0833224  99.7643224  61.5271663 109.1753224 100.7203224  61.2481663
 109.8703224  99.2743224  61.9001663 105.3403224  97.4623224  61.7751663
 105.2113224  97.7713224  62.9471663 104.3403224  97.5993224  60.8981663
 104.5083224  97.3813224  59.9261663 103.0313224  98.0493224  61.3011663
 102.7733224  97.6043224  62.2611663 102.2903224  97.7063224  60.5791663
 102.8473224  99.5463224  61.4451663 101.8183224  99.9743224  61.9221663
 103.8363224 100.3313224  61.0481663 104.6713224  99.9113224  60.6651663
 103.7533224 101.7913224  61.1491663 102.7133224 102.0673224  61.3221663
 104.6543224 102.3503224  62.2891663 104.4363224 103.4073224  62.4401663
 104.4013224 101.6043224  63.5721663 105.0383224 102.0073224  64.3591663
 103.3553224 101.7163224  63.8581663 104.6263224 100.5483224  63.4291663
 106.0143224 102.2393224  61.8881663 106.2293224 101.2923224  61.6211663
 104.2263224 102.4273224  59.8291663 104.8233224 101.7533224  58.9771663
 103.8803224 103.6953224  59.6351663 103.2613224 104.1223224  60.3101663
 104.3533224 104.4893224  58.4981663 105.2763224 104.0573224  58.1121663
 104.5863224 105.5003224  58.8321663 103.3653224 104.5943224  57.3421663
 102.5393224 103.6823224  57.1001663 103.4633224 105.7033224  56.5911663
 104.1113224 106.4063224  56.9181663 102.7193224 105.9433224  55.3801663
 101.6973224 105.5923224  55.5261663 102.6893224 107.4533224  55.0101663
 103.6803224 107.7673224  54.6821663 102.4363224 108.0393224  55.8941663
 101.6683224 107.7083224  53.9051663 100.6673224 107.6693224  54.3331663
 101.7473224 106.9153224  53.1621663 101.8033224 109.0323224  53.1681663
 102.8783224 109.6733224  53.2531663 100.8123224 109.3803224  52.4721663
 103.3743224 105.1633224  54.2521663 104.5633224 105.3593224  53.9491663
 102.6103224 104.2763224  53.6381663 101.6503224 104.1603224  53.9281663
 103.1233224 103.4633224  52.5531663 104.0993224 103.0733224  52.8441663
 102.2423224 102.2203224  52.2901663 102.6283224 101.6763224  51.4281663
 101.2283224 102.5373224  52.0501663 102.1673224 101.2323224  53.4901663
 101.2573224 100.6363224  53.4151663 102.1573224 101.7943224  54.4241663
 103.3243224 100.2473224  53.5881663 103.4393224  99.7253224  52.6391663
 103.1203224  99.5243224  54.3771663 104.5673224 100.9223224  53.8941663
 105.1533224 101.2023224  53.1191663 105.0013224 101.2043224  55.1261663
 104.3493224 100.7753224  56.2121663 103.5083224 100.2243224  56.1121663
 104.6973224 101.0013224  57.1321663 106.1363224 101.9043224  55.2741663
 106.6513224 102.2113224  54.4601663 106.4763224 102.1243224  56.1981663
 103.3023224 104.2753224  51.2671663 102.3943224 104.9883224  50.8411663
 104.4303224 104.0303224  50.6011663 105.0493224 103.3373224  50.9961663
 104.8093224 104.6953224  49.3601663 104.0983224 105.5003224  49.1681663
 106.2313224 105.2713224  49.4591663 106.4313224 105.8993224  48.5901663
 106.9553224 104.4563224  49.4481663 106.5173224 106.1143224  50.7021663
 107.5933224 106.2443224  50.8131663 106.1383224 105.6003224  51.5861663
 105.8573224 107.5013224  50.6161663 104.7743224 107.3873224  50.5741663
 106.1873224 108.0063224  49.7071663 106.2243224 108.3903224  51.8531663
 107.1653224 108.0463224  52.2821663 105.4493224 108.2953224  52.6121663
 106.3773224 109.8743224  51.5271663 106.6133224 110.3813224  52.3681663
 107.1123224 109.9953224  50.8441663 105.5083224 110.2283224  51.1531663
 104.7613224 103.7673224  48.1591663 104.7623224 102.5463224  48.3201663
 104.7693224 104.3473224  46.9491663 104.9773224 105.3343224  46.9051663
 104.4943224 103.6223224  45.7111663 103.4653224 103.2613224  45.7431663
 104.6653224 104.5943224  44.5401663 105.6613224 105.0363224  44.5761663
 103.9433224 105.4063224  44.6331663 104.5003224 104.0453224  43.1261663
 103.4603224 103.7583224  42.9781663 105.1133224 103.1513224  43.0211663
 104.9313224 105.1283224  42.1061663 104.3703224 106.2593224  42.1871663
 105.8413224 104.9023224  41.2681663 105.4043224 102.3833224  45.5291663
 104.9473224 101.3173224  45.0651663 106.6693224 102.5423224  45.9021663
 106.9243224 103.4083224  46.3551663 107.7153224 101.5043224  45.6801663
 107.4573224 100.9393224  44.7841663 109.0843224 102.1503224  45.3901663
 109.0723224 102.5963224  44.3961663 109.8583224 101.3813224  45.3951663
 109.4263224 103.1983224  46.3951663 109.8673224 102.8433224  47.6391663
 109.9993224 101.7903224  47.8911663 110.1503224 103.8003224  48.5881663
 110.5013224 103.5013224  49.5751663 109.9513224 105.1303224  48.3041663
 110.2173224 106.0743224  49.2281663 110.8383224 105.7053224  49.9251663
 109.5053224 105.5283224  47.0841663 109.3703224 106.5843224  46.8481663
 109.2213224 104.5673224  46.1361663 108.8293224 104.8863224  45.1701663
 107.8003224 100.4943224  46.8381663 108.5363224  99.4993224  46.7531663
 107.0063224 100.6983224  47.8931663 106.3903224 101.4983224  47.9211663
 107.0173224  99.7633224  49.0261663 108.0523224  99.5933224  49.3241663
 106.2153224 100.3043224  50.2161663 105.9613224  99.4833224  50.8871663
 105.2803224 100.7363224  49.8591663 106.9403224 101.3733224  51.0381663
 108.1613224 101.5873224  50.8501663 106.2673224 102.0583224  51.8521663
 106.3853224  98.4063224  48.5931663 105.4643224  98.3703224  47.7651663
 106.8883224  97.3203224  49.1861663 107.6653224  97.4993224  49.8051663
 106.4093224  95.9233224  49.0101663 105.5223224  95.9393224  48.3761663
 107.5073224  95.0863224  48.3431663 107.2473224  94.0293224  48.4041663
 108.4453224  95.2233224  48.8791663 107.7353224  95.4443224  46.8691663
 107.8763224  96.5213224  46.7741663 106.8693224  95.1383224  46.2821663
 108.9743224  94.7543224  46.2701663 109.8723224  95.1323224  46.7571663
 109.0263224  94.9633224  45.2021663 108.9523224  93.3063224  46.4401663
 108.3243224  92.7733224  45.8531663 109.6793224  92.5763224  47.3001663
 110.5513224  93.1143224  48.1361663 110.6923224  94.1143224  48.1451663
 111.0763224  92.5253224  48.7661663 109.4843224  91.2703224  47.3161663
 108.8053224  90.8533224  46.6941663 110.0123224  90.6893224  47.9491663
 106.0693224  95.3563224  50.4131663 106.7043224  94.3733224  50.8971663
 105.2303224  96.0883224  51.1441663 104.7963224  96.8823224  50.6961663
 104.9083224  95.7933224  52.5681663 105.5363224  94.9673224  52.9001663
 105.2813224  96.9703224  53.4891663 104.8493224  97.8903224  53.0971663
 104.7403224  96.7283224  54.9141663 105.0123224  97.5673224  55.5541663
 103.6553224  96.6343224  54.8801663 105.1713224  95.8113224  55.3161663
 106.8093224  97.1163224  53.4661663 107.1603224  97.1073224  52.4341663
 107.2633224  96.2653224  53.9721663 107.3163224  98.3563224  54.1101663
 108.4043224  98.3793224  54.0491663 106.9053224  99.2273224  53.5971663
 107.0123224  98.3733224  55.1561663 103.4523224  95.4103224  52.6671663
 102.5763224  96.2093224  52.3191663 103.2163224  94.1733224  53.1041663
 104.0423224  93.6373224  53.3311663 101.8943224  93.5563224  53.2731663
 101.1623224  94.1513224  52.7261663 101.9043224  92.1233224  52.7101663
 100.9673224  91.6273224  52.9611663 102.7113224  91.5553224  53.1751663
 102.0883224  92.0163224  51.1711663 103.3463224  92.1603224  50.5851663
 104.2193224  92.3553224  51.2091663 103.4983224  92.0553224  49.1941663
 104.4843224  92.1693224  48.7441663 102.4613224  91.7953224  48.4121663
 102.7213224  91.7543224  47.0471663 101.8903224  91.4813224  46.5701663
 101.1913224  91.6313224  48.9461663 100.3293224  91.4143224  48.3141663
 101.0293224  91.7533224  50.3471663 100.0303224  91.6333224  50.7651663
 101.5163224  93.5523224  54.7491663 102.2163224  92.9543224  55.5331663
 100.3923224  94.1633224  55.0781663  99.8663224  94.6233224  54.3491663
  99.8773224  94.1973224  56.4781663 100.0403224  93.2183224  56.9301663
 100.6583224  95.2113224  57.3341663 100.2413224  96.2083224  57.1891663
 101.6973224  95.2403224  57.0061663 100.6433224  94.9053224  58.8351663
  99.8003224  94.0983224  59.3091663 101.4753224  95.4923224  59.6001663
  98.3533224  94.5213224  56.4071663  97.8033224  94.7613224  55.2971663
  97.6883224  94.4513224  57.5701663  98.2613224  94.3263224  58.3931663
  96.2433224  94.5413224  57.7191663  95.7893224  94.4833224  56.7291663
  95.7393224  93.4173224  58.6841663  94.6503224  93.4243224  58.7131663
  96.0953224  93.6193224  59.6951663  96.1733224  91.9633224  58.3331663
  97.3173224  91.4353224  58.9191663  97.8903224  92.0313224  59.6301663
  97.7793224  90.1373224  58.6291663  98.6813224  89.7603224  59.1101663
  97.1063224  89.3553224  57.7111663  97.5663224  88.0683224  57.3931663
  98.4463224  87.9313224  57.8351663  95.9593224  89.8433224  57.0921663
  95.4053224  89.2283224  56.3821663  95.5093224  91.1663224  57.3951663
  94.6303224  91.5513224  56.8771663  95.7813224  95.8593224  58.3261663
  96.4873224  96.4163224  59.2131663  94.5633224  96.2823224  57.9581663
  94.1013224  95.8263224  57.1841663  93.8863224  97.3833224  58.6441663
  94.1683224  97.3603224  59.6971663  94.3593224  98.7773224  58.1471663
  93.7573224  99.0813224  57.2901663  95.3953224  98.7123224  57.8131663
  94.2703224  99.8843224  59.2071663  93.5783224  99.7333224  60.2611663
  94.9373224 100.9443224  59.0121663  92.3813224  97.1523224  58.4751663
  91.9413224  96.3693224  57.6091663  91.5943224  97.8843224  59.2681663
  92.0473224  98.4713224  59.9541663  90.1363224  97.8763224  59.1911663
  89.8063224  96.8593224  58.9751663  89.5043224  98.2283224  60.5771663
  88.4193224  98.2613224  60.4741663  89.7763224  97.0723224  61.6041663
  89.3313224  97.3283224  62.5661663  89.3343224  96.1463224  61.2351663
  90.8513224  96.9393224  61.7261663  89.9643224  99.5893224  61.1321663
  89.4873224  99.7693224  62.0951663  91.0473224  99.5833224  61.2591663
  89.6853224 100.3793224  60.4351663  89.6293224  98.7963224  58.0811663
  90.3993224  99.5823224  57.5041663  88.3413224  98.7073224  57.7641663
  87.7753224  98.0283224  58.2531663  87.7163224  99.5533224  56.7361663
  88.4593224  99.7713224  55.9681663  86.5893224  98.8363224  56.0051663
  85.9533224  99.5693224  55.5091663  85.9713224  98.3003224  56.7261663
  86.9823224  97.8223224  54.9411663  87.4643224  96.5713224  55.2791663
  87.6083224  96.3073224  56.3271663  87.7773224  95.6183224  54.2951663
  88.1563224  94.6393224  54.5861663  87.5993224  95.9203224  52.9721663
  87.8973224  94.9813224  51.9641663  88.0633224  95.4753224  51.1191663
  87.0983224  97.1533224  52.6071663  86.9153224  97.3973224  51.5601663
  86.8213224  98.1143224  53.6221663  86.4743224  99.1023224  53.3211663
  87.2673224 100.8843224  57.4261663  86.0393224 101.1263224  57.6921663
  88.2553224 101.7163224  57.6731663  89.1793224 101.3973224  57.4181663
  88.0993224 103.0493224  58.2821663  87.0563224 103.1753224  58.5771663
  88.9753224 103.1633224  59.5311663  88.7603224 102.3323224  60.2031663
  88.7343224 104.0853224  60.0621663  90.4603224 103.1593224  59.2001663
  90.8803224 102.7943224  58.0961663  91.2873224 103.5483224  60.1521663
  92.2733224 103.5633224  59.9831663  90.9283224 103.8283224  61.0421663
  88.4123224 104.1773224  57.3121663  88.6113224 105.3063224  57.7451663
  88.5093224 103.8683224  56.0111663  88.2323224 102.9273224  55.7701663
  88.9803224 104.7833224  54.9351663  89.3103224 105.7163224  55.3941663
  90.2293224 104.2323224  54.2231663  91.0553224 104.1713224  54.9321663
  90.5283224 104.9183224  53.4301663  90.0603224 102.8463224  53.5931663
  89.1283224 102.0803224  53.9711663  90.9183224 102.4963224  52.7161663
  87.8993224 105.1263224  53.9391663  88.1763224 105.7133224  52.8951663
  86.6513224 104.7003224  54.2351663  86.5073224 104.2163224  55.1101663
  85.5133224 104.9123224  53.3431663  85.8753224 104.9123224  52.3151663
  84.5173224 103.7373224  53.4341663  83.7423224 103.8793224  52.6801663
  84.0473224 103.7553224  54.4161663  85.0953224 102.3303224  53.2331663
  85.7683224 102.0923224  54.0571663  83.9813224 101.2583224  53.2861663
  84.4193224 100.2703224  53.1411663  83.4863224 101.2953224  54.2571663
  83.2533224 101.4513224  52.4991663  85.9133224 102.1783224  51.8911663
  86.2953224 101.1603224  51.8111663  85.2623224 102.3893224  51.0421663
  86.7473224 102.8793224  51.8921663  84.7913224 106.2603224  53.5521663
  84.3343224 106.8823224  52.5591663  84.6393224 106.6713224  54.7981663
  84.9453224 106.0643224  55.5451663  84.0483224 107.9633224  55.1301663
  83.8663224 108.0153224  56.2031663  83.0813224 108.0593224  54.6351663
  84.9293224 109.1223224  54.7221663  86.1633224 108.9693224  54.5951663
  84.3433224 110.3183224  54.6271663  83.3383224 110.3483224  54.7191663
  85.0783224 111.5683224  54.3991663  86.1293224 111.4003224  54.6371663
  84.9243224 112.0033224  52.9441663  83.9053224 112.3513224  52.7741663
  85.0923224 111.1473224  52.2881663  85.9093224 113.1443224  52.5241663
  86.7203224 113.6683224  53.3091663  85.7943224 113.5223224  51.2581663
  86.3823224 114.2463224  50.8971663  85.1203224 113.0833224  50.6651663
  84.5443224 112.6633224  55.3391663  84.0113224 113.6813224  54.8751663
  84.7373224 112.4693224  56.6621663  85.4493224 111.3373224  57.3131663
  84.8223224 110.4353224  57.3591663  86.4023224 111.1223224  56.8081663
  85.7183224 111.8273224  58.6961663  85.8313224 111.0223224  59.4371663
  86.6143224 112.4603224  58.7751663  84.4063224 112.6863224  59.0091663
  83.5313224 112.0773224  59.2801663  84.5413224 113.4283224  59.8091663
  84.1563224 113.4013224  57.6611663  83.0713224 113.4753224  57.4981663
  84.7573224 114.7913224  57.6291663  84.0983224 115.7143224  58.1391663
  85.9813224 114.9733224  57.0881663  86.5043224 114.1943224  56.7141663
  86.5753224 116.3343224  57.0371663  86.4183224 116.8173224  58.0021663
  88.0763224 116.2963224  56.7911663  88.4163224 117.2793224  56.4631663
  88.2963224 115.5893224  55.9901663  88.8663224 115.8963224  58.0201663
  88.2623224 115.6163224  59.0801663  90.1103224 115.8163224  57.9161663
  85.9163224 117.2023224  55.9611663  85.9463224 118.4593224  56.0811663
  85.3273224 116.5793224  54.9511663  85.4283224 115.5783224  54.8631663
  84.5393224 117.3003224  53.9661663  85.0263224 118.2553224  53.7651663
  84.4813224 116.5113224  52.6791663  84.0713224 115.5203224  52.8781663
  85.4903224 116.3763224  52.2891663  83.6293224 117.1623224  51.5711663
  84.0103224 118.1613224  51.3591663  82.5963224 117.2503224  51.9101663
  83.6563224 116.3573224  50.3111663  83.2333224 115.3703224  50.5001663
  84.6883224 116.2333224  49.9801663  82.8573224 117.0343224  49.2051663
  83.1033224 118.0953224  49.1761663  81.7933224 116.9363224  49.4131663
  83.1103224 116.4713224  47.8471663  82.5503224 116.9663224  47.1671663
  84.0883224 116.5743224  47.6161663  82.8643224 115.4923224  47.8371663
  83.1163224 117.6083224  54.4911663  82.6363224 118.7463224  54.3451663
  82.4753224 116.6483224  55.1611663  82.9153224 115.7453224  55.2631663
  81.1413224 116.8703224  55.7561663  81.1553224 117.8193224  56.2941663
  80.0963224 116.8913224  54.6431663  80.2693224 116.0553224  53.9661663
  80.2003224 117.8083224  54.0641663  78.7583224 116.8113224  55.1411663
  78.5053224 117.6893224  55.5401663  80.7583224 115.8013224  56.7311663
  81.0293224 114.6173224  56.4931663  80.0893224 116.1853224  57.8031663
  79.9243224 117.1693224  57.9621663  79.5803224 115.2143224  58.7681663
  80.4243224 114.6553224  59.1741663  78.9433224 115.9773224  59.9661663
  78.4393224 115.2683224  60.6231663  78.1893224 116.6723224  59.5951663
  79.9343224 116.7813224  60.8241663  80.6713224 117.2453224  60.1701663
  80.4593224 116.0973224  61.4901663  79.2853224 117.8773224  61.6811663
  78.1093224 117.7223224  62.0601663  79.9723224 118.8693224  62.0071663
  78.6213224 114.2043224  58.1051663  78.4563224 113.0853224  58.5691663
  78.0093224 114.5823224  56.9921663  78.1513224 115.5193224  56.6421663
  77.1373224 113.6783224  56.2621663  76.4263224 113.2413224  56.9641663
  76.3363224 114.4023224  55.1611663  75.7483224 113.6753224  54.6011663
  77.0253224 114.8753224  54.4611663  75.3823224 115.4853224  55.7451663
  75.9583224 116.3703224  56.0131663  74.9013224 115.0993224  56.6451663
  74.3193224 115.8713224  54.7421663  73.6463224 115.0283224  54.5821663
  74.7903224 116.1233224  53.7911663  73.4953224 117.0753224  55.2201663
  74.1423224 117.9483224  55.3051663  73.0783224 116.8633224  56.2031663
  72.4113224 117.2753224  54.1771663  71.8323224 118.0603224  54.4391663
  72.8373224 117.4553224  53.2781663  71.8423224 116.4433224  54.1181663
  77.8573224 112.4873224  55.6071663  77.2413224 111.4883224  55.2601663
  79.1583224 112.6773224  55.4181663  79.5893224 113.5443224  55.7071663
  79.9973224 111.6293224  54.7841663  79.3483224 110.9653224  54.2141663
  80.9803224 112.2823224  53.8181663  81.5883224 111.5023224  53.3601663
  81.6373224 112.9403224  54.3841663  80.3333224 113.1053224  52.6931663
  79.6573224 113.8443224  53.1251663  81.4133224 114.0023224  51.9151663
  80.9163224 114.5693224  51.1281663  81.8853224 114.6923224  52.6151663
  82.1713224 113.3573224  51.4731663  79.5443224 112.2563224  51.7451663
  79.1073224 112.8863224  50.9701663  80.2013224 111.5173224  51.2851663
  78.7493224 111.7463224  52.2891663  80.7403224 110.7953224  55.8291663
  81.5483224 109.9443224  55.4311663  80.4673224 110.9953224  57.1351663
  79.8743224 111.7653224  57.4101663  81.0213224 110.1073224  58.1761663
  82.0963224 110.0233224  58.0131663  80.7083224 110.6473224  59.5511663
  81.1233224 109.9813224  60.3071663  81.1473224 111.6393224  59.6611663
  79.6293224 110.7123224  59.6791663  80.3763224 108.7273224  58.0391663
  79.1613224 108.6163224  57.7401663  81.1803224 107.6703224  58.2281663
  82.1463224 107.8653224  58.4471663  80.7403224 106.2863224  58.1351663
  79.6513224 106.2663224  58.1781663  81.1403224 105.6573224  56.7741663
  80.8263224 104.6133224  56.7491663  82.2243224 105.6753224  56.6701663
  80.5983224 106.2743224  55.4881663  81.1123224 105.8383224  54.6301663
  80.7653224 107.3513224  55.5021663  79.1043224 106.0303224  55.3181663
  78.5713224 106.4243224  56.1821663  78.9183224 104.9603224  55.2341663
  78.5353224 106.6803224  54.1061663  78.5263224 106.1473224  53.2471663
  78.0403224 107.9183224  54.0911663  77.9743224 108.6273224  55.2031663
  78.3003224 108.2323224  56.0741663  77.5983224 109.5643224  55.1831663
  77.5773224 108.4243224  52.9481663  77.6033224 107.8703224  52.1031663
  77.2003224 109.3603224  52.9261663  81.3163224 105.4703224  59.3331663
  82.4383224 105.7513224  59.7721663  80.5833224 104.4143224  59.7781663
  79.3073224 103.9153224  59.2531663  78.4513224 104.4973224  59.6251663
  79.3063224 103.8833224  58.1531663  79.2353224 102.4883224  59.8071663
  78.1993224 102.1553224  59.9681663  79.7033224 101.7553224  59.1341663
  79.9513224 102.5363224  61.0741663  79.3153224 102.8753224  61.9051663
  80.3623224 101.5573224  61.3631663  81.1073224 103.5503224  60.8411663
  81.3173224 104.1603224  61.7321663  82.3613224 102.8253224  60.3591663
  82.4243224 102.3873224  59.1881663  83.3153224 102.6383224  61.2541663
  83.2583224 103.0873224  62.1571663  84.4803224 101.7713224  60.9501663
  84.9083224 102.0873224  59.9981663  85.5563224 101.9043224  62.0521663
  85.0953224 101.7133224  63.0211663  86.6513224 100.8143224  61.8811663
  87.4003224 100.9243224  62.6661663  86.1953224  99.8263224  61.9501663
  87.1283224 100.9273224  60.9081663  86.1403224 103.3023224  62.0341663
  86.8973224 103.3903224  62.8131663  86.5953224 103.4943224  61.0621663
  85.3483224 104.0293224  62.2141663  84.0003224 100.3213224  60.8661663
  83.3133224  99.8263224  61.7981663  84.3523224  99.6033224  59.8131663
  84.9223224 100.0383224  59.1021663  83.9453224  98.2043224  59.6451663
  83.1413224  97.9913224  60.3491663  83.3793224  97.9463224  58.2461663
  83.0863224  96.8993224  58.1771663  84.1643224  98.1303224  57.5141663
  82.1633224  98.8193224  57.8901663  82.4653224  99.8663224  57.8551663
  81.6083224  98.4873224  56.5051663  80.7513224  99.1263224  56.2941663
  82.3803224  98.6563224  55.7541663  81.2973224  97.4433224  56.4781663
  81.0033224  98.7023224  58.9131663  80.1783224  99.3443224  58.6021663
  80.6613224  97.6683224  58.9591663  81.3533224  99.0123224  59.8971663
  85.1373224  97.3043224  59.9341663  86.1563224  97.3283224  59.2121663
  84.9853224  96.4733224  60.9451663  84.0683224  96.4493224  61.3671663
  86.0343224  95.6093224  61.4761663  86.8963224  95.6333224  60.8111663
  85.6783224  94.5793224  61.5041663  86.4503224  96.0333224  62.8511663
  86.4893224  97.2173224  63.1511663  86.8313224  95.0593224  63.6571663
  86.6853224  94.1013224  63.3731663  87.4573224  95.3303224  64.9471663
  88.1103224  96.1973224  64.8591663  88.0823224  94.4843224  65.2331663
  86.4783224  95.5963224  66.0921663  86.8773224  96.0923224  67.1181663
  85.1993224  95.3283224  65.8841663  84.9023224  95.0363224  64.9641663
  84.1953224  95.4443224  66.9601663  84.7013224  95.3293224  67.9201663
  83.4893224  96.7983224  66.9101663  84.2313224  97.5953224  66.9001663
  82.8843224  96.9263224  67.8071663  82.6483224  96.9573224  65.7771663
  82.2023224  97.8503224  65.8171663  83.1463224  94.3333224  66.7951663
  82.9313224  93.8343224  65.7171663  82.4643224  94.0053224  67.9071663
  82.7833224  94.4173224  68.7721663  81.3023224  93.0973224  67.9301663
  81.6013224  92.1413224  67.4991663  80.8463224  92.7453224  69.3851663
  81.5953224  92.1113224  69.8581663  79.9153224  92.1793224  69.3481663
  80.6443224  93.8993224  70.2051663  80.4603224  94.6863224  69.6221663
  80.1293224  93.6423224  67.0981663  79.3533224  92.9003224  66.4931663
  80.0173224  94.9793224  67.0751663  80.7213224  95.5473224  67.5241663
  78.9063224  95.6253224  66.4191663  77.9853224  95.1313224  66.7301663
  78.7893224  97.1393224  66.8461663  79.7093224  97.6623224  66.5871663
  77.6113224  97.8343224  66.1391663  77.5603224  98.8763224  66.4561663
  77.7573224  97.7893224  65.0601663  76.6813224  97.3303224  66.4001663
  78.6163224  97.2003224  68.2771663  78.9683224  96.3623224  68.7031663
  79.0853224  95.4673224  64.8901663  78.1623224  95.1573224  64.2021663
  80.3203224  95.7203224  64.4081663  81.0483224  95.9393224  65.0731663
  80.6433224  95.6913224  62.9821663  79.7893224  95.2793224  62.4421663
  80.9403224  97.1123224  62.4961663  81.2273224  97.0843224  61.4461663
  81.7823224  97.5193224  63.0551663  79.8073224  98.0913224  62.6221663
  78.6733224  97.9533224  61.9051663  78.5643224  97.0963224  61.2401663
  77.6183224  98.9103224  62.0061663  76.7243224  98.8023224  61.3921663
  77.7433224  99.9613224  62.8811663  76.9333224 100.6803224  62.9891663
  78.8613224 100.0983224  63.5961663  78.9763224 100.9483224  64.2681663
  79.9053224  99.1623224  63.5001663  80.8113224  99.2933224  64.0931663
  81.8673224  94.7953224  62.7221663  82.9713224  95.3113224  62.4121663
  81.6973224  93.4633224  62.7271663  80.4553224  92.7233224  63.0811663
  80.2633224  92.7193224  64.1641663  79.5803224  93.1023224  62.5331663
  80.7863224  91.2493224  62.5971663  80.3133224  90.4803224  63.2251663
  80.4613224  91.0593224  61.5641663  82.3093224  91.1503224  62.6981663
  82.6523224  90.8953224  63.7121663  82.7323224  90.3973224  62.0171663
  82.8083224  92.5463224  62.3111663  83.7203224  92.8063224  62.8691663
  83.0103224  92.6653224  60.7781663  82.0643224  92.9413224  60.0071663
  84.2443224  92.4353224  60.3021663  84.9913224  92.1883224  60.9351663
  84.5303224  92.5383224  58.8571663  83.7813224  91.9603224  58.3141663
  84.4813224  94.0143224  58.4021663  85.4873224  94.4313224  58.4121663
  83.8803224  94.5923224  59.1051663  83.9033224  94.2283224  57.0121663
  82.5763224  93.8623224  56.7251663  81.9493224  93.4293224  57.5051663
  82.0403224  94.0373224  55.4731663  81.0093224  93.7453224  55.2761663
  82.8003224  94.5933224  54.4721663  82.2743224  94.7723224  53.1721663
  81.2843224  94.7643224  53.2361663  84.1003224  94.9333224  54.7061663
  84.7023224  95.3473224  53.8961663  84.6513224  94.7573224  55.9481663
  85.6933224  95.0363224  56.1011663  85.9103224  91.9513224  58.5651663
  86.7873224  92.0603224  59.4301663  86.1053224  91.3723224  57.3421663
  85.0933224  91.1083224  56.2831663  84.2153224  90.5683224  56.6681663
  84.7863224  92.0313224  55.7691663  85.8473224  90.2223224  55.3211663
  85.6623224  89.1593224  55.5361663  85.5213224  90.3983224  54.2851663
  87.3223224  90.5363224  55.4661663  87.9563224  89.6543224  55.2931663
  87.6553224  91.3143224  54.7631663  87.4913224  91.0303224  56.9181663
  87.8853224  90.2393224  57.5731663  88.3613224  92.2593224  56.9531663
  87.9053224  93.4003224  56.6591663  89.6393224  92.0383224  57.2211663
  89.9163224  91.1153224  57.5231663  90.6493224  93.0733224  57.0951663
  90.2483224  94.0003224  57.5061663  91.9123224  92.7513224  57.9101663
  92.6663224  93.5173224  57.7301663  92.3263224  91.8003224  57.5781663
  91.6853224  92.6633224  59.4051663  92.6023224  92.3323224  59.8941663
  90.8863224  91.9503224  59.6101663  91.2793224  93.9863224  60.0801663
  90.4053224  94.3983224  59.5761663  92.1033224  94.6953224  60.0151663
  90.9593224  93.7253224  61.4961663  91.6903224  93.8763224  62.1791663
  89.7893224  93.3033224  61.9871663  88.7193224  93.1463224  61.1981663
  88.7863224  93.3483224  60.2101663  87.8453224  92.8263224  61.5901663
  89.6833224  93.0233224  63.2831663  90.4843224  93.1303224  63.8901663
  88.8033224  92.7043224  63.6601663  91.0243224  93.3283224  55.6121663
  90.8393224  92.4863224  54.7111663  91.6163224  94.5083224  55.3771663
  91.7133224  95.1243224  56.1711663  92.1153224  94.9423224  54.0741663
  92.0283224  94.1093224  53.3751663  91.2423224  96.0633224  53.4481663
  90.2573224  95.6643224  53.2041663  91.6973224  96.4023224  52.5181663
  91.0123224  97.2963224  54.2911663  90.8093224  97.0003224  55.3211663
  90.1603224  97.8513224  53.8991663  92.2133224  98.2383224  54.3061663
  92.4333224  98.5643224  53.2901663  93.0783224  97.7173224  54.7151663
  91.9713224  99.4383224  55.1281663  91.1713224  99.4303224  55.7471663
  92.7043224 100.5513224  55.1451663  93.7393224 100.7003224  54.3121663
  93.9733224  99.9643224  53.6601663  94.2873224 101.5483224  54.3341663
  92.3613224 101.5613224  55.9051663  91.5353224 101.5003224  56.4841663
  92.9213224 102.4003224  55.9121663  93.5843224  95.3543224  54.1881663
  94.1693224  95.3893224  55.2711663  94.2113224  95.6693224  53.0461663
  93.7053224  95.6713224  52.1721663  95.6243224  96.0113224  53.0471663
  95.9963224  96.0213224  52.0231663  96.1833224  95.2453224  53.5851663
  95.8813224  97.3873224  53.6991663  95.2493224  98.4023224  53.3561663
  96.8553224  97.4313224  54.5951663  97.3433224  96.5743224  54.8131663
  97.2443224  98.6633224  55.2721663  96.3503224  99.1233224  55.6951663
  98.1883224  98.3353224  56.4591663  99.1373224  97.9583224  56.0761663
  97.7463224  97.5483224  57.0681663  98.4613224  99.5443224  57.3421663
  97.5183224  99.9373224  57.7231663  98.9653224 100.3143224  56.7581663
  99.3553224  99.2703224  58.5761663 100.3073224  98.8543224  58.2501663
  98.8563224  98.5613224  59.2361663  99.5823224 100.5323224  59.2851663
  98.9983224 100.7333224  60.0861663 100.4893224 101.4443224  58.9741663
 101.3433224 101.2693224  58.0061663 101.3263224 100.4163224  57.4661663
 102.0223224 101.9863224  57.7961663 100.5143224 102.5603224  59.6421663
  99.8473224 102.7193224  60.3851663 101.1993224 103.2673224  59.4181663
  97.8833224  99.7073224  54.3441663  98.7053224  99.3843224  53.5851663
  97.4223224 100.9383224  54.4571663  96.6713224 101.0863224  55.1161663
  97.9353224 102.0803224  53.6881663  98.6883224 101.7163224  52.9891663
  96.7943224 102.6883224  52.8391663  97.1253224 103.6323224  52.4071663
  96.3843224 101.7203224  51.6891663  95.5813224 102.1693224  51.1051663
  97.2433224 101.5373224  51.0441663  96.0413224 100.7773224  52.1131663
  95.6293224 102.9323224  53.6731663  95.7063224 103.8313224  54.1101663
  98.6393224 103.1643224  54.5361663  99.6093224 103.7993224  54.0511663
  98.2233224 103.3623224  55.7821663  97.3773224 102.9083224  56.0951663
  98.9563224 104.2193224  56.7111663 100.0053224 103.9253224  56.7261663
  98.5683224 104.0783224  57.7201663  98.9483224 105.7103224  56.4701663
  99.8683224 106.3993224  56.9611663  97.9073224 106.2593224  55.8651663
  97.1323224 105.6823224  55.5711663  97.8593224 107.7283224  55.6081663
  98.8143224 108.0363224  55.1821663  96.8603224 108.1333224  54.5291663
  96.8883224 109.2143224  54.3951663  95.8533224 107.8693224  54.8481663
  97.0843224 107.4993224  53.1591663  96.9123224 106.4243224  53.2231663
  98.1083224 107.6843224  52.8351663  96.1593224 108.0523224  52.1031663
  96.4393224 107.6533224  51.1291663  96.2363224 109.1393224  52.0851663
  94.7463224 107.7033224  52.3441663  94.1503224 108.4103224  52.7541663
  94.1923224 106.5323224  52.0651663  94.8513224 105.5593224  51.3851663
  95.7993224 105.7153224  51.0721663  94.3943224 104.6803224  51.1921663
  92.9193224 106.2963224  52.3821663  92.3703224 107.0123224  52.8381663
  92.5033224 105.4023224  52.1671663  97.6363224 108.5703224  56.8781663
  97.8983224 109.7913224  56.8481663  97.1673224 107.9583224  57.9571663
  96.9473224 106.9733224  57.9101663  96.9593224 108.6803224  59.2241663
  97.6723224 109.5013224  59.2961663  97.1553224 108.0103224  60.0611663
  95.5693224 109.2263224  59.3481663  94.7593224 109.0923224  58.4421663
  95.2453224 109.8323224  60.5001663  96.1753224 110.0243224  61.6191663
  96.4843224 109.0683224  62.0671663  97.0543224 110.6133224  61.3181663
  95.3543224 110.8153224  62.6261663  95.6303224 110.5883224  63.6671663
  95.4623224 111.9023224  62.4981663  93.9593224 110.4083224  62.3681663
  93.6953224 109.4663224  62.8711663  93.2313224 111.1643224  62.6981663
  93.8783224 110.2313224  60.8431663  93.1883224 109.4133224  60.5881663
  93.4013224 111.5153224  60.1441663  94.1873224 112.3873224  59.7811663
  92.0913224 111.6093224  59.9611663  91.5443224 110.7673224  60.0711663
  91.4163224 112.8543224  59.6141663  91.8773224 113.2583224  58.7131663
  89.9213224 112.6333224  59.3331663  89.4753224 113.5643224  58.9841663
  89.7123224 111.5223224  58.2341663  88.6463224 111.3853224  58.0531663
  90.2013224 111.8283224  57.3091663  90.1453224 110.5843224  58.5791663
  89.2323224 112.2833224  60.5451663  88.2463224 112.1983224  60.3721663
  91.5813224 113.8913224  60.7521663  91.9363224 113.5533224  61.9021663
  91.2813224 115.1493224  60.4471663  90.9873224 115.4143224  59.5181663
  91.3803224 116.1883224  61.4961663  92.2893224 116.0123224  62.0731663
  91.6473224 117.6183224  60.9241663  91.5673224 118.3443224  61.7331663
  93.0683224 117.7253224  60.4121663  93.2383224 118.7273224  60.0171663
  93.7643224 117.5343224  61.2281663  93.2263224 116.9933224  59.6211663
  90.6603224 117.9943224  59.8501663  90.8853224 118.9953224  59.4841663
  90.7293224 117.2823224  59.0271663  89.6513224 117.9773224  60.2611663
  90.1733224 116.1433224  62.4641663  90.2933224 116.4333224  63.6771663
  89.0193224 115.7373224  61.9531663  88.9773224 115.4393224  60.9891663
  87.7913224 115.7123224  62.7661663  87.8733224 116.4753224  63.5401663
  86.5613224 116.0923224  61.9141663  85.6743224 116.1173224  62.5471663
  86.7453224 117.4653224  61.2641663  85.8643224 117.7073224  60.6701663
  86.8803224 118.2193224  62.0391663  87.6233224 117.4473224  60.6191663
  86.3863224 115.1183224  60.8861663  87.0933224 115.2233224  60.1771663
  87.5703224 114.3663224  63.4901663  86.8353224 114.3123224  64.5111663
  88.1753224 113.2663224  63.0011663  88.7793224 113.3233224  62.1941663
  87.9583224 111.9503224  63.6491663  87.6473224 112.1193224  64.6801663
  86.8323224 111.2013224  62.9151663  87.0643224 111.1473224  61.8511663
  85.8993224 111.7553224  63.0191663  86.6013224 109.7593224  63.4341663
  87.1273224 109.3673224  64.5131663  85.9223224 108.9953224  62.7131663
  89.2173224 111.1073224  63.6791663  89.6723224 110.6463224  62.6051663
  89.7493224 110.8033224  64.8631663  89.2083224 111.1523224  66.2051663
  89.3163224 112.2243224  66.4261663  88.1603224 110.8373224  66.3131663
  90.0603224 110.3663224  67.1341663  90.1943224 110.8783224  68.0981663
  89.6233224 109.3813224  67.3551663  91.3783224 110.2043224  66.4481663
  92.0473224 111.0633224  66.6061663  91.9223224 109.3073224  66.7801663
  91.0243224 110.0823224  64.9621663  91.7793224 110.5963224  64.3491663
  90.9143224 108.5803224  64.5051663  91.9473224 107.9283224  64.2891663
  89.7013224 108.0583224  64.4331663  88.9063224 108.6273224  64.6881663
  89.4773224 106.6663224  63.9901663  90.3683224 106.0813224  64.2231663
  88.3093224 106.0533224  64.7981663  88.1453224 105.0243224  64.4771663
  87.3933224 106.6103224  64.5941663  88.5603224 106.0603224  66.3071663
  87.6673224 106.3973224  67.0851663  89.7473224 105.6623224  66.7201663
  89.9583224 105.6493224  67.6981663  90.4363224 105.3733224  66.0561663
  89.2743224 106.4583224  62.4751663  89.1243224 105.3013224  62.0521663
  89.1793224 107.5453224  61.6841663  89.2293224 108.4533224  62.1241663
  89.0093224 107.4643224  60.2351663  88.8083224 106.4263224  59.9681663
  87.7893224 108.3263224  59.7571663  87.9193224 109.3563224  60.0881663
  87.5613224 108.3873224  58.2481663  86.6923224 109.0103224  58.0361663
  88.4403224 108.8123224  57.7641663  87.3883224 107.3823224  57.8661663
  86.5953224 107.7993224  60.3541663  86.4123224 108.2563224  61.2301663
  90.3023224 107.9213224  59.5561663  90.9273224 108.8903224  59.9801663
  90.6753224 107.1913224  58.5001663  90.0843224 106.4183224  58.2301663
  91.8883224 107.4633224  57.7301663  92.6853224 107.7313224  58.4241663
  92.3213224 106.1783224  56.9751663  91.5853224 105.9423224  56.2061663
  92.3483224 105.3393224  57.6701663  93.7193224 106.3443224  56.3151663
  94.3963224 106.8053224  57.0331663  93.6283224 107.0143224  55.4601663
  94.3693224 105.0503224  55.8201663  93.9493224 103.9333224  56.2201663
  95.3433224 105.1833224  55.0311663  91.6823224 108.6363224  56.7661663
  90.6363224 108.6993224  56.0801663  92.6403224 109.5663224  56.7261663
  93.4333224 109.5183224  57.3501663  92.5503224 110.6743224  55.7691663
  91.6183224 111.2113224  55.9481663  93.6513224 111.6553224  56.0061663
  93.7393224 111.8523224  57.0751663  93.4093224 112.5993224  55.5181663
  95.0123224 111.2443224  55.5201663  94.9343224 110.8543224  54.5061663
  95.4063224 110.4573224  56.1641663  95.9373224 112.4873224  55.5541663
  95.4053224 113.3483224  55.1491663  96.8183224 112.3033224  54.9371663
  96.4153224 112.8493224  56.9681663  96.9453224 112.0013224  57.4011663
  95.5543224 113.0703224  57.5971663  97.3623224 114.0683224  57.0321663
  97.6293224 114.2383224  57.9911663  98.1883224 113.8823224  56.4811663
  96.8893224 114.8823224  56.6651663  92.5123224 110.2463224  54.3181663
  92.9643224 109.1603224  53.9641663  91.9413224 111.1103224  53.4761663
  91.5553224 111.9393224  53.9041663  91.8413224 110.9473224  52.0541663
  91.3653224 109.9883224  51.8481663  91.0553224 112.1143224  51.4891663
  91.0003224 112.0243224  50.4041663  91.5743224 113.0463224  51.7141663
  89.6223224 112.2183224  52.0361663  89.2423224 113.2213224  51.8421663
  89.6393224 112.0273224  53.1091663  88.7323224 111.2263224  51.3801663
  88.5943224 111.2403224  50.1381663  88.0733224 110.3603224  52.1771663
  87.4633224 109.6753224  51.7761663  88.1933224 110.4023224  53.1691663
  93.2083224 110.9343224  51.4041663  94.1503224 111.4793224  51.9431663
  93.3153224 110.2643224  50.2791663  92.5673224 109.6593224  49.9721663
  94.5073224 110.3833224  49.4631663  95.2223224 109.6123224  49.7491663
  94.9813224 111.3473224  49.6501663  94.1923224 110.2553224  47.9901663
  93.2553224 109.6053224  47.6041663  95.0803224 110.8343224  47.1611663
  95.8713224 111.3363224  47.5381663  94.9173224 110.7483224  45.7121663
  93.8903224 111.0173224  45.4631663  95.8233224 111.7603224  44.9931663
  95.8053224 111.5673224  43.9201663  96.8513224 111.6323224  45.3311663
  95.4483224 113.2193224  45.2041663  96.2693224 113.8473224  44.8611663
  95.3113224 113.3983224  46.2701663  94.1793224 113.6623224  44.4911663
  93.6233224 112.9073224  43.6281663  93.7313224 114.8003224  44.8111663
  95.1563224 109.3233224  45.1651663  94.5313224 108.9113224  44.1931663
  96.1013224 108.5963224  45.7841663  96.6023224 109.0353224  46.5431663
  96.4343224 107.2083224  45.4111663  95.7423224 106.8833224  44.6331663
  97.8733224 107.0883224  44.8461663  98.5773224 107.4653224  45.5881663
  98.1953224 105.6223224  44.5881663  99.2073224 105.5363224  44.1911663
  98.1243224 105.0643224  45.5211663  97.4873224 105.2163224  43.8661663
  97.9803224 107.9323224  43.5331663  98.9903224 107.8533224  43.1311663
  97.2663224 107.5563224  42.8001663  97.7583224 108.9773224  43.7531663
  96.3003224 106.3293224  46.6391663  96.8353224 106.6513224  47.7001663
  95.4883224 105.2823224  46.5271663  94.9283224 105.1873224  45.6921663
  95.3803224 104.2453224  47.5971663  95.5653224 104.7213224  48.5611663
  94.0043224 103.6173224  47.6271663  94.0533224 102.6573224  48.1401663
  93.6693224 103.4263224  46.6081663  92.9173224 104.4383224  48.3121663
  92.8633224 105.8543224  48.2211663  93.6373224 106.3823224  47.6641663
  91.8473224 106.5753224  48.8251663  91.8313224 107.6623224  48.7481663
  90.8533224 105.9063224  49.5261663  90.0563224 106.4673224  50.0131663
  90.8803224 104.5063224  49.6061663  90.0923224 103.9763224  50.1401663
  91.8933224 103.8003224  49.0171663  91.9093224 102.7123224  49.0831663
  96.4603224 103.1653224  47.2911663  96.3933224 102.3933224  46.2931663
  97.4793224 103.1493224  48.1421663  97.4553224 103.7953224  48.9181663
  98.6163224 102.2493224  48.0031663  99.1163224 102.4663224  47.0581663
  99.5383224 102.4493224  49.1791663  98.9483224 102.6073224  50.0811663
 100.1413224 103.3453224  49.0211663 100.5053224 101.2783224  49.4531663
 100.1583224 100.2723224  50.3851663  99.1783224 100.2873224  50.8631663
 101.0663224  99.2303224  50.7171663 100.7783224  98.4653224  51.4381663
 102.3203224  99.1783224  50.0741663 103.2323224  98.1733224  50.4271663
 102.8153224  97.6013224  51.1251663 102.6643224 100.1543224  49.1241663
 103.6273224 100.1023224  48.6161663 101.7593224 101.2093224  48.8261663
 102.0493224 101.9703224  48.1021663  98.1793224 100.7853224  47.9581663
  97.2753224 100.3433224  48.7031663  98.8463224 100.0223224  47.0781663
  99.2723224 100.5033224  46.2991663  98.9883224  98.5533224  47.1831663
  98.5873224  98.2353224  48.1461663  98.1993224  97.7713224  46.1101663
  98.3693224  96.7043224  46.2531663  96.7263224  97.9753224  46.3361663
  96.1623224  97.4253224  45.5821663  96.4563224  97.6113224  47.3271663
  96.4903224  99.0363224  46.2621663  98.6253224  98.1363224  44.6891663
  98.0403224  97.5583224  43.9741663  98.4563224  99.2003224  44.5201663
  99.6843224  97.9113224  44.5571663 100.4723224  98.2223224  47.0711663
 101.2123224  98.9593224  46.4111663 100.9083224  97.1013224  47.7021663
 100.1663224  96.1323224  48.5371663  99.5823224  96.6423224  49.3171663
  99.5153224  95.4983224  47.9171663 101.2013224  95.3073224  49.1621663
 101.5653224  95.7223224  50.1131663 100.8653224  94.2813224  49.3711663
 102.3473224  95.2943224  48.1071663 103.3353224  95.1113224  48.5541663
 102.2003224  94.5313224  47.3291663 102.3053224  96.6943224  47.4831663
 102.9713224  97.3733224  48.0361663 102.6363224  96.7003224  45.9691663
 101.8193224  96.3303224  45.1371663 103.8333224  97.1633224  45.6021663
 104.5863224  97.2333224  46.2721663 104.0723224  97.5823224  44.2011663
 103.4643224  98.4643224  43.9951663 105.5253224  98.0553224  44.0281663
 106.2053224  97.2403224  44.2751663 105.7273224  98.8713224  44.7211663
 105.8473224  98.5453224  42.5811663 105.6003224  97.7583224  41.8671663
 106.9083224  98.7843224  42.5051663 105.0883224  99.7593224  42.1851663
 105.4213224 100.6073224  42.7821663 104.0243224  99.5933224  42.3521663
 105.2183224 100.1783224  40.7751663 105.9513224 100.8373224  40.5461663
 104.4573224  99.7683224  39.7711663 103.5463224  98.8443224  39.9481663
 103.4153224  98.4323224  40.8611663 102.9753224  98.5433224  39.1721663
 104.6223224 100.3103224  38.5621663 105.3223224 101.0253224  38.4201663
 104.0483224 100.0053224  37.7901663 103.6953224  96.5573224  43.1191663
 103.0873224  96.9413224  42.0731663 104.0753224  95.2853224  43.3171663
 104.5173224  94.9883224  44.1751663 103.8413224  94.3003224  42.2571663
 104.0733224  94.7633224  41.2971663 104.8603224  93.1713224  42.3621663
 104.6143224  92.3903224  41.6411663 104.8093224  92.7263224  43.3561663
 106.2903224  93.6613224  42.1031663 106.5093224  94.6013224  41.2821663
 107.1573224  93.0593224  42.7841663 102.4173224  93.8173224  42.1661663
 102.0703224  93.0523224  41.2651663 101.5683224  94.2563224  43.1031663
 101.9493224  94.7443224  43.9011663 100.1273224  94.0573224  43.0141663
  99.9393224  93.0403224  42.6681663  99.4733224  94.2613224  44.4101663
  98.3913224  94.1583224  44.3241663  99.6783224  95.2723224  44.7641663
  99.9793224  93.2593224  45.4671663  99.4583224  93.4433224  46.4051663
 101.0423224  93.4293224  45.6341663  99.8173224  91.7543224  45.1481663
  98.7593224  91.4773224  44.4671663 100.7353224  90.9843224  45.5551663
  99.4793224  95.0043224  42.0241663  98.3403224  94.7613224  41.6001663
 100.1853224  96.0633224  41.6101663 101.1333224  96.1753224  41.9411663
  99.6243224  97.0643224  40.6911663  98.5373224  96.9753224  40.7041663
  99.8643224  98.4743224  41.0421663 100.9363224  98.6503224  41.1291663
  99.4173224  98.6883224  42.0141663  99.2643224  99.4163224  39.9711663
  98.4663224  98.9783224  39.1221663  99.6613224 100.6403224  40.0051663
  99.3103224 101.2993224  39.3391663 100.3203224 100.9333224  40.6971663
 100.0893224  96.8193224  39.3271663 101.1903224  97.2973224  38.8931663
  99.1833224  96.1343224  38.6291663  98.2403224  96.0653224  38.9841663
  99.5163224  95.4823224  37.3681663 100.4933224  95.0123224  37.4701663
  98.4593224  94.4103224  37.0351663  98.7463224  93.9153224  36.1071663
  97.5013224  94.9043224  36.8781663  98.3023224  93.3573224  38.1331663
  97.6613224  93.7483224  38.9241663  97.6343224  92.1483224  37.4911663
  97.5003224  91.3663224  38.2391663  96.6623224  92.4383224  37.0931663
  98.2613224  91.7733224  36.6831663  99.6123224  92.9723224  38.7491663
  99.4443224  92.2223224  39.5231663 100.2683224  92.5613224  37.9821663
 100.0793224  93.8523224  39.1921663  99.5543224  96.5303224  36.2811663
  98.5673224  97.2893224  36.1071663 100.6983224  96.6063224  35.6121663
 101.5233224  96.1493224  35.9731663 100.7853224  97.3433224  34.3561663
 101.8313224  97.5253224  34.1131663 100.3083224  98.3173224  34.4721663
 100.1193224  96.5753224  33.2241663  99.8713224  95.3733224  33.3191663
  99.7823224  97.2783224  32.1491663  99.9223224  98.2783224  32.1571663
  99.2203224  96.6533224  30.9681663  99.4193224  95.5823224  30.9941663
  97.6973224  96.8803224  30.8871663  97.2943224  96.3423224  30.0291663
  97.4953224  97.9413224  30.7331663  96.9433224  96.4353224  32.1111663
  96.5053224  95.1313224  32.2871663  95.9043224  95.0523224  33.4681663
  95.4753224  94.1513224  33.9061663  95.9033224  96.2353224  34.0381663
  95.4853224  96.4613224  34.9291663  96.5673224  97.1203224  33.2191663
  96.7353224  98.1803224  33.4131663  99.8653224  97.2273224  29.7131663
 100.0733224  98.4413224  29.6471663 100.1173224  96.3753224  28.7291663
  99.9273224  95.3923224  28.8621663 100.6683224  96.8303224  27.4451663
 101.5693224  97.4103224  27.6421663 101.0613224  95.6593224  26.5701663
 101.2163224  96.0213224  25.5541663 100.2403224  94.9443224  26.5571663
 102.3353224  94.9343224  27.0321663 102.2403224  94.6673224  28.0851663
 102.4983224  93.5983224  26.3091663 103.4073224  93.1063224  26.6551663
 101.6393224  92.9623224  26.5221663 102.5653224  93.7713224  25.2361663
 103.5973224  95.8583224  26.8531663 104.4883224  95.3263224  27.1871663
 103.7063224  96.1253224  25.8021663 103.4723224  96.7643224  27.4461663
  99.7093224  97.7193224  26.6811663 100.1423224  98.6613224  26.0381663
  98.4063224  97.4123224  26.7711663  98.1573224  96.6033224  27.3221663
  97.3443224  98.1853224  26.1171663  97.8073224  98.9103224  25.4461663
  96.4393224  97.2363224  25.3171663  95.6733224  97.8143224  24.7991663
  95.9303224  96.5563224  26.0011663  97.1753224  96.3813224  24.2641663
  98.1823224  96.1583224  24.6161663  97.2503224  96.9393224  23.3301663
  96.4503224  95.0513224  23.9821663  96.2453224  94.5423224  24.9241663
  97.0893224  94.4103224  23.3741663  95.1223224  95.2553224  23.2431663
  95.2453224  96.0213224  22.4781663  94.3633224  95.5953224  23.9461663
  94.6463224  93.9843224  22.5871663  93.7723224  94.1573224  22.1111663
  95.3363224  93.6703224  21.9191663  94.5113224  93.2723224  23.2901663
  96.5433224  98.9253224  27.1841663  96.0083224  98.3093224  28.1151663
  96.3743224 100.2413224  27.0541663  96.7583224 100.7343224  26.2611663
  95.6323224 100.9843224  28.0571663  96.0873224 100.8003224  29.0311663
  95.6953224 102.5113224  27.8311663  96.7043224 102.8673224  28.0331663
  95.0253224 103.0103224  28.5311663  95.3293224 102.8483224  26.4981663
  94.7673224 103.6733224  26.5081663  94.1803224 100.5303224  28.1141663
  93.5573224 100.6643224  29.1531663  93.6443224  99.9493224  27.0391663
  94.1823224  99.8143224  26.1951663  92.2533224  99.4973224  27.0781663
  91.6313224 100.3213224  27.4311663  91.7263224  99.1143224  25.7131663
  91.9243224  99.9213224  25.0071663  90.6453224  98.9813224  25.7641663
  92.3283224  97.8403224  25.1491663  91.9293224  96.9803224  25.6871663
  93.4103224  97.8593224  25.2811663  92.0403224  97.6363224  23.6551663
  92.5483224  96.7373224  23.3061663  92.4203224  98.4893224  23.0911663
  90.5413224  97.4863224  23.3321663  90.0103224  98.3853224  23.6451663
  90.1333224  96.6403224  23.8831663  90.3163224  97.2663224  21.8361663
  89.3273224  97.1723224  21.6541663  90.6793224  98.0563224  21.3211663
  90.7933224  96.4253224  21.5431663  92.0823224  98.3263224  28.0541663
  90.9753224  98.0623224  28.5111663  93.1783224  97.6303224  28.3791663
  94.0453224  97.8913224  27.9311663  93.1763224  96.5303224  29.3351663
  92.2363224  95.9873224  29.2361663  94.2833224  95.4903224  29.0081663
  94.4503224  94.8513224  29.8761663  95.2193224  96.0083224  28.7981663
  93.9623224  94.5883224  27.8111663  92.7773224  94.4293224  27.4661663
  94.9103224  93.9893224  27.2331663  93.2673224  96.9843224  30.7971663
  93.1203224  96.1013224  31.7061663  93.4773224  98.2773224  31.0831663
  93.5973224  98.9093224  30.3051663  93.5403224  98.8083224  32.4551663
  94.0243224  98.0623224  33.0851663  94.3743224 100.0983224  32.5281663
  94.3973224 100.4593224  33.5561663  95.3913224  99.8933224  32.1931663
  93.9273224 100.8573224  31.8881663  92.1223224  99.0593224  33.0221663
  91.8013224 100.1463224  33.5291663  91.2723224  98.0353224  32.9871663
  91.6283224  97.1303224  32.7141663  89.8443224  98.1723224  33.3291663
  89.3883224  98.8743224  32.6321663  89.1483224  96.8383224  33.1301663
  88.1153224  96.9323224  33.4641663  89.6423224  96.0923224  33.7511663
  89.1043224  96.2793224  31.7301663  90.1133224  96.2503224  31.3181663
  88.6513224  94.8303224  31.7061663  88.6353224  94.4713224  30.6771663
  89.3423224  94.2233224  32.2911663  87.6513224  94.7543224  32.1321663
  88.2303224  97.1253224  30.7881663  88.2323224  96.6803224  29.7921663
  87.2093224  97.1563224  31.1691663  88.6293224  98.1383224  30.7341663
  89.5993224  98.7103224  34.7221663  88.6463224  99.4773224  34.9441663
  90.4343224  98.3383224  35.6861663  91.1903224  97.7083224  35.4591663
  90.2893224  98.8173224  37.0771663  89.3053224  98.5233224  37.4431663
  91.3573224  98.1083224  37.9621663  91.2343224  97.0283224  37.8861663
  91.2053224  98.3823224  39.0061663  92.8063224  98.4463224  37.5911663
  93.4133224  98.4373224  38.4951663  92.8383224  99.4523224  37.1751663
  93.4443224  97.4833224  36.5651663  92.7653224  96.5763224  36.0371663
  94.6463224  97.6473224  36.2861663  90.3593224 100.3853224  37.2401663
  89.8403224 100.9393224  38.2241663  90.9563224 101.1103224  36.3131663
  91.3993224 100.6503224  35.5301663  90.9913224 102.6023224  36.3961663
  91.1813224 102.8863224  37.4301663  92.1543224 103.2293224  35.5691663
  92.2403224 104.2893224  35.8081663  93.4343224 102.5193224  35.9231663
  94.2573224 102.9473224  35.3511663  93.6323224 102.6363224  36.9881663
  93.3403224 101.4593224  35.6861663  91.7783224 103.2373224  34.0541663
  90.8593224 103.8063224  33.9101663  91.5853224 102.2183224  33.7221663
  92.7913224 103.8153224  33.0901663  92.4003224 103.7583224  32.0741663
  92.9843224 104.8573224  33.3461663  93.7183224 103.2483224  33.1541663
  89.6663224 103.2763224  35.9841663  89.4083224 104.4483224  36.2711663
  88.7863224 102.5033224  35.3451663  89.0143224 101.5323224  35.1871663
  87.5003224 103.0223224  34.8671663  86.9723224 102.2403224  34.3231663
  87.6753224 103.8393224  34.1671663  86.5803224 103.5333224  35.9621663
  85.9283224 104.5193224  35.7211663  86.5153224 102.8913224  37.1461663
  87.0673224 102.0623224  37.3141663  85.6213224 103.4013224  38.2281663
  84.6043224 103.4553224  37.8401663  85.4963224 102.4583224  39.4061663
  84.9073224 102.9323224  40.1911663  84.8193224 101.1783224  38.9751663
  84.7333224 100.5063224  39.8291663  83.8253224 101.4043224  38.5901663
  85.4103224 100.6993224  38.1951663  86.8013224 102.2453224  39.9861663
  87.4263224 101.8663224  39.2981663  85.9303224 104.7943224  38.7391663
  85.0023224 105.6053224  38.9291663  87.2203224 105.1623224  38.8911663
  87.9573224 104.4953224  38.7121663  87.5693224 106.5033224  39.3091663
  86.9963224 106.7463224  40.2051663  89.0543224 106.5413224  39.6421663
  89.6353224 106.3673224  38.7361663  89.2913224 105.7393224  40.3421663
  89.6193224 107.7823224  40.2481663  89.0433224 108.0493224  41.1331663
  89.5513224 108.6013224  39.5311663  91.0843224 107.3633224  40.5691663
  91.5813224 107.0463224  39.6521663  91.0783224 106.5253224  41.2671663
  91.8983224 108.4413224  41.1681663  92.6663224 108.0053224  41.8071663
  91.2633224 109.0773224  41.7841663  92.5383224 109.2553224  40.1171663
  93.0903224 109.9853224  40.5451663  93.1373224 108.6683224  39.5531663
  91.8273224 109.6703224  39.5321663  87.2223224 107.5493224  38.2671663
  86.6423224 108.5703224  38.5781663  87.5213224 107.2603224  36.9861663
  88.0583224 106.4383224  36.7471663  87.0623224 108.1503224  35.9141663
  87.4783224 109.1443224  36.0871663  87.5073224 107.6213224  34.5621663
  87.0843224 108.2403224  33.7721663  87.1263224 106.6093224  34.4241663
  88.8833224 107.6273224  34.4881663  89.2633224 106.7973224  34.9111663
  85.5533224 108.3223224  35.8441663  85.0503224 109.4133224  35.6091663
  84.8413224 107.1963224  36.0431663  85.3033224 106.3053224  36.1601663
  83.4013224 107.2523224  36.0911663  83.0423224 107.7193224  35.1741663
  82.7983224 105.8303224  36.1621663  83.1723224 105.3383224  37.0601663
  83.1383224 105.2653224  35.2961663  81.2923224 105.7613224  36.1931663
  80.9223224 106.2873224  37.0731663  80.7343224 106.4383224  34.9351663
  79.6453224 106.3923224  34.9501663  81.0523224 107.4803224  34.9111663
  81.1063224 105.9243224  34.0501663  80.8183224 104.3063224  36.2501663
  79.7283224 104.2793224  36.2721663  81.1763224 103.7723224  35.3701663
  81.2113224 103.8303224  37.1481663  82.8843224 108.0993224  37.2721663
  82.0183224 108.9253224  37.0721663  83.3863224 107.8703224  38.4941663
  84.0953224 107.1743224  38.6751663  82.8723224 108.6763224  39.6101663
  81.7823224 108.6213224  39.6041663  83.3273224 108.0983224  40.9221663
  84.4153224 108.1103224  40.9671663  83.0083224 107.0583224  40.9911663
  82.7753224 108.8613224  41.9711663  81.7953224 108.6743224  42.0441663
  83.2373224 110.1803224  39.5201663  82.3973224 111.0443224  39.7711663
  84.4593224 110.4683224  39.0731663  85.0003224 109.7353224  38.6361663
  85.0493224 111.8303224  39.1971663  84.5283224 112.3613224  39.9941663
  86.5293224 111.6883224  39.5661663  87.0023224 112.6703224  39.5581663
  87.0333224 111.0763224  38.8181663  86.7513224 111.0553224  40.9381663
  86.5293224 109.9903224  40.8751663  86.0873224 111.5333224  41.6591663
  88.1823224 111.1993224  41.4621663  89.1033224 111.5793224  40.7301663
  88.3753224 110.8643224  42.7321663  89.2883224 110.9353224  43.1361663
  87.6083224 110.5403224  43.2861663  84.9123224 112.6923224  37.9541663
  84.8303224 113.9243224  38.0761663  84.8683224 112.0793224  36.7671663
  84.8883224 111.0703224  36.7261663  84.7913224 112.8473224  35.5121663
  84.8813224 113.9063224  35.7491663  85.9623224 112.5163224  34.5721663
  85.9053224 111.4693224  34.2751663  85.9053224 113.3963224  33.3151663
  86.7413224 113.1503224  32.6601663  84.9683224 113.2183224  32.7891663
  85.9663224 114.4463224  33.6031663  87.2873224 112.6983224  35.3291663
  87.2403224 112.1633224  36.2781663  87.4343224 113.7533224  35.5571663
  88.5253224 112.2063224  34.5801663  89.4123224 112.3753224  35.1921663
  88.4253224 111.1403224  34.3731663  88.6233224 112.7513224  33.6421663
  83.4623224 112.6553224  34.7831663  82.7213224 113.6233224  34.5251663
  83.1073224 111.3913224  34.5261663  83.6533224 110.6113224  34.8631663
  81.9073224 111.1313224  33.7431663  81.9363224 111.7543224  32.8481663
  81.8983224 109.6823224  33.2091663  81.8373224 108.9943224  34.0521663
  80.5763224 109.3903224  32.4281663  80.5903224 108.3643224  32.0601663
  79.7233224 109.5253224  33.0931663  80.4933224 110.0753224  31.5851663
  83.1653224 109.3853224  32.4181663  83.1343224 108.3593224  32.0541663
  83.2343224 110.0693224  31.5721663  84.0353224 109.5153224  33.0621663
  80.6193224 111.4703224  34.5091663  79.7273224 112.1293224  33.9421663
  80.5113224 111.0263224  35.7671663  81.2443224 110.4833224  36.2001663
  79.3063224 111.3333224  36.5331663  78.4583224 110.8433224  36.0541663
  79.3563224 110.6803224  37.9111663  80.2933224 110.9403224  38.4031663
  79.3343224 109.5963224  37.8011663  78.2143224 111.0883224  38.8201663
  77.2703224 110.8353224  38.3371663  78.2683224 112.1633224  38.9941663
  78.2013224 110.4253224  40.1801663  78.6543224 109.2993224  40.3501663
  77.6223224 111.1423224  41.1751663  77.5773224 110.7673224  42.1021663
  77.2403224 112.0463224  40.9831663  78.9153224 112.8283224  36.6051663
  77.7593224 113.1643224  36.3661663  79.8653224 113.7463224  36.9241663
  81.1333224 113.4613224  37.6091663  81.0213224 112.6903224  38.3861663
  81.9263224 113.1843224  36.8991663  81.4803224 114.8033224  38.2661663
  81.0543224 114.9023224  39.2751663  82.5653224 114.9583224  38.3631663
  80.8843224 115.8423224  37.3431663  80.6853224 116.8033224  37.8401663
  81.5123224 116.0573224  36.4661663  79.5563224 115.1943224  36.8951663
  78.7723224 115.4123224  37.6361663  79.1033224 115.7153224  35.5371663
  78.2603224 116.6443224  35.4621663  79.6503224 115.1433224  34.4701663
  80.3483224 114.4233224  34.5891663  79.2603224 115.5363224  33.1251663
  79.3133224 116.6233224  33.0611663  80.2733224 114.9893224  32.0751663
  79.9623224 115.2953224  31.0761663  81.2653224 115.3893224  32.2841663
  80.3013224 113.9023224  32.1291663  77.8063224 115.1193224  32.8211663
  77.0233224 115.9173224  32.2611663  77.4653224 113.8823224  33.1701663
  78.1633224 113.2293224  33.4961663  76.0623224 113.4483224  33.0851663
  75.7453224 113.5043224  32.0431663  75.8593224 112.0043224  33.5591663
  74.7973224 111.8163224  33.7091663  76.3543224 111.8633224  34.5191663
  76.3823224 110.9153224  32.6161663  76.5243224 111.1003224  31.2621663
  76.2933224 112.0743224  30.8311663  76.9683224 110.0303224  30.4401663
  77.1033224 110.1853224  29.3701663  77.2313224 108.8003224  30.9731663
  77.5733224 107.9893224  30.3321663  77.0593224 108.6023224  32.3111663
  77.2613224 107.6243224  32.7471663  76.6253224 109.6533224  33.1121663
  76.4853224 109.5003224  34.1831663  75.1693224 114.3493224  33.9141663
  74.1373224 114.8073224  33.4351663  75.5583224 114.5963224  35.1641663
  76.3963224 114.1703224  35.5321663  74.7753224 115.4893224  36.0221663
  73.8083224 115.0243224  36.2141663  75.4443224 115.6083224  37.3991663
  75.0053224 116.4433224  37.9461663  76.5053224 115.8223224  37.2711663
  75.3093224 114.3633224  38.2431663  75.5543224 113.4953224  37.6331663
  74.2733224 114.2663224  38.5651663  76.2003224 114.3453224  39.4941663
  77.1463224 115.1903224  39.5791663  75.9653224 113.4783224  40.3881663
  74.4683224 116.8663224  35.4021663  73.3533224 117.3763224  35.5461663
  75.4303224 117.4783224  34.7091663  76.3223224 117.0233224  34.5791663
  75.2193224 118.7853224  34.1391663  74.8403224 119.4463224  34.9201663
  76.5413224 119.3833224  33.6421663  77.2773224 119.3553224  34.4441663
  76.3893224 120.4283224  33.3731663  77.0543224 118.6713224  32.5041663
  76.9213224 117.6953224  32.6471663  74.1863224 118.7393224  33.0131663
  73.3753224 119.6433224  32.8851663  74.1823224 117.6553224  32.2231663
  74.8503224 116.9113224  32.3621663  73.2103224 117.5413224  31.1531663
  73.2993224 118.4233224  30.5191663  73.4663224 116.2763224  30.3161663
  72.7253224 116.2113224  29.5191663  74.4643224 116.3243224  29.8801663
  73.3913224 115.3973224  30.9541663  71.7983224 117.5023224  31.7561663
  70.8713224 118.0503224  31.1731663  71.6353224 116.8293224  32.8921663
  72.4253224 116.3183224  33.2591663  70.3433224 116.8013224  33.6361663
  69.5413224 116.5833224  32.9291663  70.3163224 115.6413224  34.6491663
  69.4763224 115.7723224  35.3301663  71.2273224 115.6593224  35.2461663
  70.1943224 114.2513224  33.9761663  71.2703224 113.6543224  33.3591663
  72.2373224 114.1583224  33.3701663  71.1233224 112.3973224  32.7171663
  71.9713224 111.9463224  32.2021663  69.8843224 111.7703224  32.7651663
  69.7373224 110.8123224  32.2681663  68.8593224 112.3123224  33.4061663
  67.9103224 111.7803224  33.4631663  68.9963224 113.5603224  34.0051663
  68.1523224 114.0073224  34.5321663  70.0113224 118.1673224  34.3121663
  68.8803224 118.6643224  34.2111663  70.9993224 118.7483224  34.9851663
  71.9043224 118.3073224  35.0671663  70.7743224 120.0773224  35.6341663
  69.9453224 119.9833224  36.3371663  72.0143224 120.5283224  36.4071663
  71.8743224 121.5523224  36.7531663  72.8793224 120.5223224  35.7431663
  72.3283224 119.6623224  37.6031663  71.4653224 118.9013224  38.0971663
  73.4893224 119.7333224  38.0721663  70.4023224 121.1803224  34.6521663
  69.6403224 122.0713224  35.0041663  70.9453224 121.1583224  33.4401663
  71.6153224 120.4303224  33.2381663  70.6173224 122.1313224  32.4011663
  70.3753224 123.0793224  32.8791663  71.8273224 122.3403224  31.5091663
  71.5443224 123.0003224  30.6891663  72.1203224 121.3793224  31.0901663
  73.0323224 122.9493224  32.2441663  73.1823224 122.4283224  33.1901663
  74.3183224 122.7273224  31.4521663  75.1583224 123.1663224  31.9911663
  74.4883224 121.6583224  31.3261663  74.2293224 123.1983224  30.4741663
  72.7863224 124.4313224  32.5231663  73.6473224 124.8513224  33.0451663
  72.6403224 124.9593224  31.5811663  71.8963224 124.5423224  33.1431663
  69.4023224 121.7743224  31.5371663  69.0353224 122.5223224  30.6081663
  68.7843224 120.6233224  31.8301663  69.1793224 120.0193224  32.5371663
  67.5543224 120.2183224  31.1541663  67.2323224 119.2613224  31.5661663
  66.4013224 121.1753224  31.4871663  65.5103224 120.8793224  30.9321663
  66.6633224 122.1853224  31.1701663  66.1063224 121.1603224  32.9961663
  67.0013224 121.4513224  33.5451663  65.8253224 120.1513224  33.3021663
  64.9673224 122.1273224  33.3381663  64.0313224 121.7453224  32.9301663
  65.1693224 123.1013224  32.8891663  64.8173224 122.2973224  34.8571663
  64.6303224 121.3263224  35.3151663  63.9663224 122.9433224  35.0681663
  66.0393224 122.8983224  35.5111663  65.8813224 122.9843224  36.5051663
  66.8373224 122.3003224  35.3481663  66.2173224 123.8113224  35.1181663
  67.7593224 120.0183224  29.6541663  66.9353224 120.3833224  28.7951663
  68.8773224 119.3563224  29.3431663  69.4793224 119.0293224  30.0861663
  69.2483224 119.0953224  27.9701663  68.7603224 119.8343224  27.3331663
  70.7723224 119.1773224  27.8491663  71.0783224 118.8303224  26.8631663
  71.2313224 118.5173224  28.5851663  71.1803224 120.5283224  28.0581663
  70.5613224 120.9613224  28.7101663  68.7873224 117.7013224  27.5121663
  68.7763224 117.4293224  26.3131663  68.3843224 116.8433224  28.4641663
  68.4973224 117.1393224  29.4231663  67.7963224 115.5173224  28.1851663
  67.4373224 115.5073224  27.1551663  68.8803224 114.4123224  28.3271663
  69.7663224 114.6973224  27.7601663  69.2643224 114.2173224  29.7681663
  70.0243224 113.4393224  29.8401663  69.6603224 115.1503224  30.1681663
  68.3873224 113.9203224  30.3411663  68.3993224 113.1493224  27.7871663
  69.1253224 112.7103224  27.2551663  66.6203224 115.3233224  29.1691663
  66.6673224 115.8863224  30.2711663  65.5523224 114.5503224  28.7831663
  65.2293224 113.9533224  27.4611663  65.3823224 114.6753224  26.6451663
  65.8173224 113.0403224  27.2861663  63.7813224 113.6043224  27.5521663
  63.1253224 114.4233224  27.2231663  63.5173224 112.7243224  26.9471663
  63.5533224 113.3073224  29.0591663  62.5163224 113.4883224  29.3771663
  63.7973224 112.2693224  29.3311663  64.4923224 114.2673224  29.7751663
  63.9533224 115.1983224  30.0041663  65.0763224 113.6443224  31.0931663
  66.0023224 112.8433224  31.0991663  64.5153224 114.0693224  32.2211663
  63.7093224 114.6763224  32.1781663  65.0453224 113.6733224  33.5371663
  66.1283224 113.7943224  33.5241663  64.5323224 114.6263224  34.6991663
  63.4473224 114.5593224  34.7721663  65.1503224 114.2093224  36.0371663
  64.7913224 114.8703224  36.8251663  64.8643224 113.1833224  36.2661663
  66.2363224 114.2773224  35.9731663  64.8553224 116.0823224  34.4081663
  64.6783224 116.6803224  35.3021663  64.1893224 116.4543224  33.6301663
  66.2943224 116.4053224  33.9451663  66.3893224 117.4773224  33.7731663
  67.0023224 116.0973224  34.7151663  66.5073224 115.8703224  33.0211663
  64.7323224 112.1753224  33.8501663  65.5063224 111.4883224  34.4921663
  63.5803224 111.7283224  33.3931663  63.0263224 112.3933224  32.8721663
  63.0723224 110.3793224  33.5861663  63.8073224 109.8113224  34.1581663
  61.7323224 110.4273224  34.3131663  61.2753224 109.4373224  34.3001663
  61.0583224 111.1053224  33.7891663  61.7813224 110.8983224  35.8311663
  60.8013224 111.2813224  36.1131663  62.5003224 111.7123224  35.9251663
  62.1693224 109.8253224  36.8191663  61.8573224 108.6013224  36.6711663
  62.8883224 110.2153224  37.7621663  62.8613224 109.6623224  32.2531663
  62.5403224 110.3073224  31.2491663  62.9763224 108.3513224  32.2761663
  63.4583224 107.9423224  33.0641663  62.4423224 107.4673224  31.2231663
  62.7983224 107.8263224  30.2561663  62.8713224 106.0153224  31.4091663
  62.4403224 105.4043224  30.6171663  62.4863224 105.6413224  32.3571663
  64.3453224 105.7363224  31.4081663  65.1543224 106.0223224  30.2771663
  64.7153224 106.5443224  29.4261663  66.4823224 105.6453224  30.2541663
  67.0923224 105.8543224  29.3761663  67.0543224 104.9993224  31.3431663
  68.1113224 104.7393224  31.3301663  66.2623224 104.6913224  32.4391663
  66.6893224 104.1543224  33.2861663  64.9313224 105.0523224  32.4811663
  64.3253224 104.8003224  33.3521663  60.9173224 107.5193224  31.2701663
  60.3263224 107.3833224  32.3501663  60.2803224 107.6663224  30.1011663
  60.8653224 107.7093224  29.2791663  58.7923224 107.7683224  29.9441663
  58.3473224 108.0813224  30.8881663  58.4153224 108.9973224  29.0421663
  59.2663224 109.6743224  28.9761663  57.5933224 109.5473224  29.5021663
  57.9973224 108.6923224  27.6371663  58.8913224 108.3943224  26.6321663
  58.2343224 108.1753224  25.5091663  58.6763224 107.8653224  24.5621663
  56.9493224 108.3953224  25.7301663  56.2123224 108.3353224  25.0421663
  56.7733224 108.7203224  27.0541663  55.8273224 108.9573224  27.5421663
  58.1433224 106.3843224  29.5641663  57.0333224 105.9993224  30.0151663
  58.9233224 105.5633224  28.8771663  59.8843224 105.8303224  28.7201663
  58.4353224 104.2763224  28.3351663  57.6543224 103.8963224  28.9961663
  57.9023224 104.4803224  26.9131663  57.2213224 105.3303224  26.8981663
  57.3353224 103.6013224  26.6071663  58.9973224 104.6993224  26.0421663
  59.5663224 105.4383224  26.4011663  59.5863224 103.2713224  28.2801663
  60.7713224 103.6783224  28.3441663  59.2943224 101.9623224  28.1851663
  58.3323224 101.6593224  28.2431663  60.3513224 100.9573224  27.9981663
  61.0253224 101.0003224  28.8551663  59.7913224  99.5423224  27.9631663
  60.5713224  98.8503224  27.6471663  58.9883224  99.4873224  27.2291663
  59.2233224  99.0073224  29.2981663  59.3073224  99.7153224  30.4871663
  59.7443224 100.7143224  30.4821663  58.8243224  99.1623224  31.7541663
  58.9623224  99.7213224  32.6791663  58.1953224  97.9303224  31.7611663
  57.7723224  97.5383224  32.6851663  58.1203224  97.2013224  30.5461663
  57.6613224  96.2133224  30.5321663  58.6373224  97.7393224  29.3371663
  58.5713224  97.1643224  28.4131663  61.1963224 101.2043224  26.7441663
  62.4093224 100.9693224  26.7641663  60.5833224 101.7203224  25.6621663
  59.5853224 101.8723224  25.6671663  61.3383224 102.0613224  24.4861663
  61.8413224 101.1643224  24.1261663  60.4343224 102.4993224  23.3121663
  59.9283224 103.4293224  23.5701663  59.6663224 101.7443224  23.1431663
  61.2073224 102.7193224  21.9681663  61.8713224 103.5763224  22.0791663
  60.4863224 102.9053224  21.1721663  62.0763224 101.5173224  21.5301663
  61.6523224 100.3813224  21.6791663  63.2553224 101.7903224  20.9781663
  63.8523224 101.0453224  20.6791663  63.5453224 102.7403224  20.8621663
  62.4393224 103.0933224  24.7311663  63.4643224 103.0583224  24.0851663
  62.2323224 104.0403224  25.6631663  61.3523224 104.1003224  26.1541663
  63.2963224 105.0063224  25.9781663  63.6053224 105.4943224  25.0531663
  62.8343224 106.0373224  27.0341663  63.6953224 106.6013224  27.3941663
  62.4043224 105.5153224  27.8891663  61.8223224 107.0153224  26.5411663
  61.6443224 107.2353224  25.3131663  61.1593224 107.6493224  27.4291663
  64.5173224 104.3143224  26.5811663  65.6323224 104.7523224  26.4081663
  64.3193224 103.1723224  27.2481663  63.3653224 102.8773224  27.4011663
  65.4153224 102.3413224  27.7601663  66.1653224 102.9953224  28.2071663
  64.9703224 101.4263224  28.9281663  64.1903224 100.7523224  28.5731663
  66.1483224 100.5773224  29.4001663  65.8283224  99.9353224  30.2221663
  66.5053224  99.9603224  28.5761663  66.9523224 101.2283224  29.7411663
  64.4203224 102.3293224  30.0841663  64.1013224 101.7013224  30.9151663
  65.2043224 103.0073224  30.4211663  63.5713224 102.9083224  29.7211663
  66.0783224 101.5313224  26.6171663  67.3033224 101.5273224  26.4721663
  65.2523224 100.8723224  25.7841663  64.2543224 100.8773224  25.9381663
  65.7963224 100.1343224  24.6341663  66.4683224  99.3533224  24.9881663
  64.7053224  99.3833224  23.8681663  65.1463224  98.8773224  23.0091663
  63.9713224 100.0953224  23.4881663  63.9863224  98.3633224  24.6981663
  64.6223224  97.2723224  25.2521663  63.7473224  96.5623224  25.9641663
  63.9703224  95.6563224  26.5281663  62.5843224  97.1493224  25.8611663
  61.7243224  96.8353224  26.2881663  62.6933224  98.2653224  25.0831663
  61.8883224  98.9533224  24.8221663  66.6083224 101.0353224  23.7011663
  67.6213224 100.5863224  23.0921663  66.1993224 102.3123224  23.5831663
  65.3873224 102.6063224  24.1071663  66.8863224 103.2823224  22.7281663
  66.7933224 102.9563224  21.6921663  66.3363224 104.7043224  22.8201663
  67.0773224 105.4063224  22.4371663  66.1543224 104.9573224  23.8651663
  65.0443224 104.9313224  22.0561663  64.7433224 104.2113224  21.0781663
  64.3063224 105.8803224  22.4521663  68.3623224 103.3783224  23.0551663
  69.1963224 103.6453224  22.1721663  68.7403224 103.2163224  24.3301663
  68.0303224 103.0093224  25.0181663  70.1443224 103.3293224  24.7591663
  70.4663224 104.3613224  24.6211663  70.2903224 103.0403224  26.2651663
  71.3503224 103.0483224  26.5191663  69.8973224 102.0453224  26.4671663
  69.5813224 104.0173224  27.2301663  68.5033224 103.9653224  27.0731663
  69.7683224 103.5343224  28.6971663  69.2673224 104.2253224  29.3741663
  69.3373224 102.5393224  28.8101663  70.8303224 103.4993224  28.9361663
  70.0283224 105.4803224  27.0111663  69.5023224 106.1303224  27.7111663
  71.1023224 105.5613224  27.1771663  69.7953224 105.7833224  25.9901663
  71.1093224 102.4563224  23.9591663  72.2423224 102.8763224  23.7961663
  70.6913224 101.2493224  23.5411663  69.7563224 100.9483224  23.7771663
  71.5533224 100.3563224  22.7521663  72.5663224 100.7583224  22.7591663
  71.6863224  98.9573224  23.3841663  72.1823224  99.0403224  24.3511663
  72.3113224  98.3283224  22.7481663  70.3663224  98.2373224  23.5981663
  69.6653224  97.5813224  22.5311663  70.0863224  97.5743224  21.5251663
  68.4453224  96.9643224  22.8291663  67.8853224  96.4563224  22.0441663
  67.9633224  97.0033224  24.1181663  66.7213224  96.4603224  24.5101663
  66.1403224  97.2043224  24.8171663  68.6093224  97.6143224  25.1271663
  68.1943224  97.6553224  26.1341663  69.8203224  98.1963224  24.8611663
  70.3553224  98.6403224  25.7011663  71.1483224 100.2513224  21.2751663
  71.7293224  99.4623224  20.5271663  70.1753224 101.0453224  20.8381663
  69.7473224 101.6483224  21.5251663  69.7023224 101.0933224  19.4541663
  70.0823224 100.2173224  18.9281663  68.1973224 100.9723224  19.4031663
  67.8503224 101.1683224  18.3881663  67.7493224 101.7243224  20.0531663
  67.7443224  99.5963224  19.8351663  68.2493224  99.3343224  20.7641663
  68.0403224  98.8723224  19.0761663  66.2603224  99.4683224  20.0471663
  65.5453224 100.4743224  19.9791663  65.8123224  98.3363224  20.3191663
  70.2683224 102.3983224  18.8021663  71.4703224 102.4653224  18.3951663
  69.4823224 103.4633224  18.7401663  68.5243224 103.4043224  19.0541663
  69.9823224 104.7283224  18.2221663  69.1433224 105.3763224  17.9721663
  70.5373224 104.5503224  17.3011663  70.8853224 105.4693224  19.1871663
  71.6273224 106.3873224  18.7571663  70.7613224 105.2093224  20.4941663
  70.0553224 104.5623224  20.8161663  71.6373224 105.8513224  21.4711663
  72.5013224 106.2763224  20.9611663  72.0123224 105.1033224  22.1701663
  70.9123224 106.9573224  22.2501663  69.6553224 107.0973224  22.1741663
  71.6543224 107.6573224  23.0851663  72.6023224 107.3613224  23.2701663
  71.1313224 108.8703224  23.7611663  70.0743224 108.9723224  23.5181663
  71.2103224 108.7453224  25.2931663  70.5443224 107.9513224  25.6281663
  72.6743224 108.4033224  25.7601663  72.7003224 108.3213224  26.8461663
  72.9853224 107.4573224  25.3181663  73.3523224 109.1943224  25.4401663
  70.6343224 110.0073224  25.9841663  69.6533224 110.2353224  25.5671663
  71.2803224 110.8603224  25.7801663  70.4873224 109.8613224  27.5211663
  70.0783224 110.7823224  27.9371663  69.8153224 109.0323224  27.7451663
  71.4633224 109.6673224  27.9631663  71.8843224 110.1123224  23.2631663
  73.0943224 110.0853224  23.0791663  71.1603224 111.1843224  22.9521663
  70.1563224 111.0783224  22.9731663  71.7413224 112.5013224  22.5841663
  72.6733224 112.3293224  22.0441663  70.8053224 113.2593224  21.6391663
  71.1833224 114.2703224  21.4871663  69.8183224 113.3433224  22.0951663
  70.7123224 112.5013224  20.2741663  70.2463224 111.5293224  20.4291663
  71.7153224 112.3443224  19.8761663  69.9593224 113.0863224  19.1361663
  70.6063224 113.7663224  18.5831663  69.1073224 113.6513224  19.5151663
  69.4643224 111.9683224  18.2001663  68.7533224 112.3813224  17.4841663
  68.9543224 111.2043224  18.7851663  70.5633224 111.2803224  17.4071663
  70.1583224 110.5643224  16.8211663  71.0383224 111.9593224  16.8291663
  71.2253224 110.8593224  18.0431663  72.0693224 113.3383224  23.8271663
  71.2543224 113.4743224  24.7291663  73.3113224 113.8193224  23.8911663
  73.9293224 113.5883224  23.1271663  73.8053224 114.6343224  24.9721663
  72.9593224 114.9503224  25.5811663  74.7723224 113.8273224  25.8031663
  75.1943224 114.4743224  26.5721663  75.5823224 113.4863224  25.1601663
  74.1223224 112.6273224  26.4641663  73.5523224 112.0673224  25.7221663
  75.2503224 111.6363224  26.9461663  74.7933224 110.7693224  27.4231663
  75.8383224 111.3093224  26.0881663  75.8983224 112.1433224  27.6601663
  73.1523224 112.9993224  27.6031663  72.7243224 112.0903224  28.0281663
  73.6923224 113.5433224  28.3781663  72.3523224 113.6273224  27.2091663
  74.5103224 115.8913224  24.4271663  74.8713224 115.9363224  23.2521663
  74.6663224 116.9443224  25.2841663  74.2253224 116.9823224  26.6941663
  73.1953224 116.6163224  26.8201663  74.9153224 116.4363224  27.3551663
  74.2803224 118.4823224  27.0221663  73.3823224 119.0333224  26.7061663
  74.4223224 118.6923224  28.0921663  75.4823224 118.9493224  26.2351663
  75.4723224 120.0323224  26.0401663  76.4353224 118.7213224  26.7351663
  75.3853224 118.1743224  24.9071663  74.7993224 118.7193224  24.1521663
  76.7743224 117.8723224  24.3801663  77.3883224 116.9243224  24.8501663
  77.2053224 118.6693224  23.3971663  76.6063224 119.4283224  23.1041663
  78.5023224 118.4853224  22.7351663  78.4723224 117.5533224  22.1691663
  78.8223224 119.6413224  21.7781663  79.8683224 119.5863224  21.4781663
  78.6793224 120.5903224  22.2931663  77.9903224 119.7193224  20.4701663
  76.9283224 119.7583224  20.7161663  78.1893224 118.8383224  19.8591663
  78.3123224 120.9583224  19.6141663  79.3903224 121.0353224  19.4771663
  77.9453224 121.8533224  20.1171663  77.7233224 120.9703224  18.2681663
  76.9173224 121.5613224  18.1131663  78.1623224 120.2653224  17.2271663
  79.1893224 119.4253224  17.3361663  79.6563224 119.3103224  18.2251663
  79.5023224 118.9033224  16.5311663  77.5513224 120.3923224  16.0501663
  76.7633224 121.0183224  15.9541663  77.8753224 119.8633224  15.2541663
  79.5993224 118.4143224  23.7761663  80.4323224 117.5393224  23.7571663
  79.6043224 119.3853224  24.6821663  78.8733224 120.0823224  24.6951663
  80.6743224 119.4563224  25.6771663  81.6313224 119.4643224  25.1551663
  80.6173224 120.7843224  26.4691663  80.5333224 121.6193224  25.7731663
  81.5443224 120.9153224  27.0271663  79.4753224 120.8143224  27.4071663
  78.3823224 121.2763224  26.9781663  79.6513224 120.2593224  28.5341663
  80.6283224 118.2443224  26.5941663  81.6573224 117.8343224  27.1111663
  79.4693224 117.6143224  26.7721663  78.6283224 118.0113224  26.3791663
  79.3823224 116.3523224  27.5271663  79.9583224 116.4583224  28.4471663
  77.9133224 116.0913224  27.9601663  77.2823224 116.0583224  27.0711663
  77.7663224 114.6963224  28.5591663  76.7293224 114.5343224  28.8551663
  78.0523224 113.9503224  27.8181663  78.4103224 114.6063224  29.4331663
  77.3763224 117.2253224  28.9171663  76.3463224 117.0073224  29.1971663
  77.9953224 117.2683224  29.8131663  77.4163224 118.1853224  28.4021663
  79.9743224 115.1053224  26.7631663  80.7463224 114.3373224  27.2941663
  79.6703224 114.9403224  25.4801663  78.9563224 115.5153224  25.0551663
  80.3643224 113.9203224  24.6541663  80.1733224 112.9383224  25.0851663
  79.8353224 114.0023224  23.1991663  79.8663224 115.0373224  22.8591663
  80.6793224 113.1543224  22.2421663  80.2773224 113.2363224  21.2321663
  81.7083224 113.5103224  22.2531663  80.6523224 112.1113224  22.5591663
  78.3183224 113.6943224  23.1341663  78.0103224 113.6003224  22.0921663
  77.7603224 114.5243224  23.5651663  77.8693224 112.4263224  23.8521663
  76.7913224 112.3083224  23.7421663  78.3753224 111.5633224  23.4171663
  78.1193224 112.4993224  24.9091663  81.9063224 114.1453224  24.6401663
  82.7063224 113.2173224  24.6711663  82.3033224 115.4113224  24.5551663
  81.6223224 116.1563224  24.5921663  83.7363224 115.7503224  24.4061663
  84.1503224 115.1533224  23.5921663  83.9053224 117.2403224  24.0011663
  84.9513224 117.5273224  24.0991663  83.3283224 117.8693224  24.6791663
  83.4633224 117.3923224  22.6741663  82.4983224 117.1373224  22.6081663
  84.5263224 115.4383224  25.6701663  85.7113224 115.1453224  25.6111663
  83.8513224 115.4243224  26.8101663  82.8753224 115.6823224  26.7951663
  84.4663224 115.0513224  28.0761663  85.4423224 115.5333224  28.1421663
  83.5903224 115.6323224  29.2611663  82.5553224 115.3153224  29.1371663
  84.0773224 115.1573224  30.6101663  83.4483224 115.5793224  31.3931663
  84.0283224 114.0693224  30.6521663  85.1073224 115.4803224  30.7591663
  83.6013224 117.0613224  29.2101663  82.9433224 117.3933224  28.5251663
  84.7223224 113.5093224  28.2041663  85.7203224 113.0603224  28.7691663
  83.8183224 112.7593224  27.6041663  83.1903224 113.2053224  26.9511663
  83.6963224 111.3653224  27.8381663  84.0953224 111.1443224  28.8271663
  82.1383224 111.0103224  27.8791663  81.6543224 111.3923224  26.9811663
  81.9043224 109.5363224  27.9451663  80.8333224 109.3393224  27.9721663
  82.3393224 109.0593224  27.0681663  82.3703224 109.1343224  28.8451663
  81.4173224 111.6743224  29.0611663  81.6263224 112.7443224  29.0601663
  81.8023224 111.2683224  29.9961663  79.8713224 111.4733224  29.0321663
  79.4233224 111.9673224  29.8951663  79.4653224 111.9043224  28.1161663
  79.6423224 110.4093224  29.0661663  84.5273224 110.5953224  26.7741663
  85.2493224 109.6673224  27.1081663  84.4823224 111.0723224  25.5131663
  84.0173224 111.9663224  25.4431663  85.0103224 110.4563224  24.3141663
  84.5223224 109.4923224  24.1771663  84.6983224 111.3883224  23.0361663
  83.8283224 112.0103224  23.2431663  85.8453224 112.3133224  22.6741663
  85.5703224 112.9113224  21.8061663  86.0603224 112.9713224  23.5151663
  86.7303224 111.7213224  22.4411663  84.3653224 110.5873224  21.8021663
  83.5883224 109.8603224  22.0391663  85.2453224 110.0313224  21.4811663
  83.8943224 111.5133224  20.6911663  83.6553224 110.9253224  19.8041663
  83.0053224 112.0523224  21.0191663  84.6833224 112.2253224  20.4521663
  86.4933224 110.1243224  24.2761663  86.8433224 109.1113224  23.6941663
  87.3643224 110.9623224  24.8811663  87.1173224 112.2783224  25.5111663
  86.5113224 112.9293224  24.8631663  86.6443224 112.1633224  26.4971663
  88.4813224 112.8703224  25.6781663  88.4963224 113.9393224  25.4211663
  88.8383224 112.7873224  26.7151663  89.3653224 112.1183224  24.7751663
  89.3553224 112.4933224  23.7411663  90.4153224 112.1053224  25.1021663
  88.7803224 110.6953224  24.8241663  89.0053224 110.1273224  23.9091663
  89.4243224 109.8973224  26.0011663  90.6173224 109.6153224  25.9671663
  88.6573224 109.5433224  27.0321663  87.6663224 109.7373224  26.9961663
  89.2203224 108.8713224  28.2331663  90.1703224 109.3433224  28.4801663
  88.2023224 108.9733224  29.3731663  88.5693224 108.3933224  30.2191663
  87.2623224 108.5363224  29.0401663  87.8223224 110.3293224  29.9581663
  87.5603224 111.0133224  29.1511663  86.6093224 110.2443224  30.8711663
  86.3783224 111.2353224  31.2621663  85.7553224 109.8693224  30.3071663
  86.8233224 109.5683224  31.6981663  88.9973224 110.9023224  30.7421663
  88.7203224 111.8723224  31.1571663  89.2603224 110.2223224  31.5531663
  89.8533224 111.0233224  30.0781663  89.5023224 107.3743224  28.0231663
  88.6483224 106.6673224  27.5091663  90.6703224 106.8493224  28.4661663
  91.8023224 107.4923224  29.1701663  92.0793224 108.4583224  28.7231663
  91.6063224 107.6053224  30.2471663  92.9063224 106.5143224  28.9651663
  93.4463224 106.7023224  28.0261663  93.6493224 106.5643224  29.7751663
  92.2833224 105.1923224  28.9331663  92.8593224 104.4693224  28.3361663
  92.1643224 104.7583224  29.9371663  90.9013224 105.4233224  28.2921663
  90.8523224 105.1773224  27.2211663  89.8783224 104.5843224  29.0811663
  89.3863224 105.0643224  30.1101663  89.5813224 103.3873224  28.5771663
  90.0803224 103.1273224  27.7381663  88.5963224 102.4443224  29.1511663
  88.7073224 101.4813224  28.6511663  88.9013224 102.1063224  30.6661663
  88.9073224 103.0323224  31.2411663  87.8453224 101.1713224  31.2391663
  88.0783224 100.9553224  32.2821663  86.8663224 101.6463224  31.1781663
  87.8353224 100.2423224  30.6701663  90.2633224 101.4273224  30.7631663
  90.4793224 101.1923224  31.8051663  90.2543224 100.5073224  30.1781663
  91.0323224 102.0963224  30.3751663  87.1463224 102.9283224  28.9481663
  86.3363224 102.2503224  28.3201663  86.8643224 104.1273224  29.4551663
  87.5863224 104.6003224  29.9801663  85.5653224 104.7783224  29.2831663
  84.8093224 104.1793224  29.7881663  85.5693224 106.1683224  29.9201663
  86.3593224 106.7703224  29.4731663  84.2193224 106.8493224  29.6841663
  84.2263224 107.8393224  30.1401663  84.0423224 106.9443224  28.6141663
  83.4263224 106.2493224  30.1311663  85.8863224 106.1203224  31.4181663
  85.8203224 107.1253224  31.8361663  86.9093224 105.7733224  31.5621663
  84.9663224 105.2123224  32.2521663  85.2713224 105.2473224  33.2981663
  83.9363224 105.5583224  32.1631663  85.0383224 104.1883224  31.8881663
  85.1733224 104.8793224  27.7991663  84.0283224 104.5853224  27.4351663
  86.0983224 105.2913224  26.9371663  87.0303224 105.4973224  27.2681663
  85.7943224 105.4533224  25.5121663  84.9563224 106.1443224  25.4131663
  86.9833224 106.1173224  24.7861663  87.2993224 107.0013224  25.3391663
  86.6673224 106.4463224  23.7961663  88.1753224 105.2573224  24.6071663
  87.9073224 104.3823224  24.0161663  88.5313224 104.9213224  25.5821663
  89.2843224 106.0693224  23.8851663  89.4583224 107.0033224  24.4201663
  88.9603224 106.3063224  22.8711663  90.5553224 105.3143224  23.8181663
  90.4283224 104.4453224  23.1721663  90.8223224 104.9633224  24.8141663
  91.6773224 106.1873224  23.2731663  92.5333224 105.6523224  23.2361663
  91.4373224 106.5033224  22.3441663  91.8063224 106.9863224  23.8771663
  85.3593224 104.1343224  24.8301663  84.7043224 104.1403224  23.7751663
  85.7283224 102.9733224  25.4011663  86.3053224 103.0023224  26.2301663
  85.3233224 101.6823224  24.8631663  85.3473224 101.7383224  23.7741663
  86.2913224 100.5693224  25.3291663  86.1403224  99.6773224  24.7211663
  86.0683224 100.3023224  26.3621663  87.7733224 100.9143224  25.2621663
  88.3453224 100.0993224  25.7041663  87.9543224 101.8113224  25.8541663
  88.2763224 101.1593224  23.8521663  87.6243224 100.7083224  22.8721663
  89.3213224 101.8343224  23.7281663  83.9023224 101.2663224  25.2381663
  83.3943224 100.2623224  24.7281663  83.2623224 101.9773224  26.1451663
  83.6923224 102.8243224  26.4891663  81.9503224 101.5783224  26.6681663
  81.9413224 100.4953224  26.7901663  81.7133224 102.1963224  28.0531663
  80.7443224 101.8613224  28.4221663  81.6843224 103.2793224  27.9491663
  82.7273224 101.8903224  29.1511663  83.7083224 102.2613224  28.8541663
  82.3803224 102.5613224  30.5041663  83.1403224 102.3053224  31.2431663
  82.3503224 103.6433224  30.3761663  81.4083224 102.2083224  30.8461663
  82.8403224 100.3653224  29.4161663  83.5723224 100.1863224  30.2041663
  81.8703224  99.9773224  29.7271663  83.1573224  99.8603224  28.5041663
  80.7793224 101.9223224  25.7511663  79.6483224 101.4503224  25.9921663
  80.9923224 102.8933224  24.8401663  81.9413224 103.2203224  24.7251663
  79.9303224 103.4853224  24.0241663  79.0833224 102.7983224  24.0071663
  79.5223224 104.8713224  24.5351663  78.4963224 105.0823224  24.2351663
  80.1593224 105.6303224  24.0791663  79.5953224 105.0813224  26.0541663
  80.6383224 105.7583224  26.6211663  81.4513224 106.1303224  25.9961663
  80.7263224 106.0053224  27.9681663  81.5813224 106.5503224  28.3671663
  79.7503224 105.5203224  28.8271663  79.8593224 105.7753224  30.1961663
  79.2103224 105.1963224  30.6791663  78.6593224 104.8393224  28.2891663
  77.8673224 104.4593224  28.9341663  78.5883224 104.6443224  26.9031663
  77.7153224 104.1343224  26.4961663  80.4103224 103.6843224  22.6391663
  81.5293224 104.1383224  22.4421663  79.5073224 103.4873224  21.6961663
  78.6323224 103.0103224  21.8631663  79.8053224 103.9953224  20.3351663
  80.8863224 103.9803224  20.1891663  79.2023224 103.1183224  19.3141663
  79.3283224 103.5673224  18.3291663  78.1323224 103.0283224  19.4981663
  79.8203224 101.7473224  19.3151663  79.6193224 101.2583224  20.2691663
  80.8973224 101.8333224  19.1711663  79.2513224 100.9423224  18.2301663
  78.1633224 100.9773224  18.2831663  79.5863224  99.9103224  18.3281663
  79.7253224 101.5213224  16.9661663  79.0743224 102.0823224  16.4331663
  80.9553224 101.3773224  16.4411663  81.8903224 100.6063224  17.0081663
  81.6833224 100.1063224  17.8611663  82.8023224 100.5243224  16.5831663
  81.2433224 101.9813224  15.2941663  80.5423224 102.5403224  14.8271663
  82.1623224 101.8823224  14.8881663  79.2733224 105.4183224  20.2221663
  78.3563224 105.8073224  20.9371663  79.8813224 106.2063224  19.3411663
  80.5733224 105.8123224  18.7201663  79.5733224 107.6233224  19.2491663
  78.5243224 107.7673224  19.5081663  80.4713224 108.4193224  20.2001663
  80.3743224 108.0213224  21.2101663  81.9503224 108.3683224  19.8191663
  82.5303224 108.9523224  20.5331663  82.2933224 107.3343224  19.8311663
  82.0833224 108.7823224  18.8201663  80.0713224 109.7763224  20.2161663
  79.1113224 109.8633224  20.5131663  79.7763224 108.1533224  17.8201663
  80.4763224 107.5393224  17.0251663  79.0583224 109.2163224  17.5021663
  78.3413224 109.5083224  18.1511663  79.2573224 109.9833224  16.2571663
  79.5763224 109.2953224  15.4741663  77.9263224 110.6683224  15.7661663
  77.1633224 109.9063224  15.6041663  78.1023224 111.1633224  14.8111663
  77.3663224 111.6983224  16.7351663  77.8433224 111.7743224  17.8931663
  76.4363224 112.4773224  16.3311663  80.3543224 111.0493224  16.4701663
  80.6873224 111.8103224  15.5751663  80.9593224 111.1053224  17.6451663
  80.7253224 110.4013224  18.3311663  81.9503224 112.1423224  17.9891663
  82.6563224 112.2573224  17.1671663  82.5223224 111.8243224  18.8611663
  81.3593224 113.5063224  18.2911663  82.1023224 114.4843224  18.5251663
  80.0313224 113.6413224  18.2771663  79.4343224 112.8363224  18.1501663
  79.4133224 114.9803224  18.4481663  80.1873224 115.6813224  18.7611663
  78.8373224 115.4993224  17.1321663  78.3113224 116.4373224  17.3101663
  78.1103224 114.7853224  16.7461663  79.9143224 115.7283224  16.0751663
  80.2643224 114.7623224  15.7121663  80.7393224 116.2793224  16.5261663
  79.4243224 116.5163224  14.8911663  79.3243224 117.7543224  14.9201663
  79.0873224 115.7983224  13.8311663  78.7523224 116.2523224  13.0041663
  79.1673224 114.8013224  13.8551663  78.3363224 115.0283224  19.5071663
  78.4353224 115.7873224  20.4981663  77.3023224 114.1803224  19.4471663
  77.2253224 113.5143224  18.6921663  76.2393224 114.2103224  20.5071663
  76.6223224 114.7173224  21.3921663  74.9963224 114.9673224  20.0241663
  74.1763224 114.8023224  20.7221663  74.6853224 114.5763224  19.0551663
  75.1813224 116.4553224  19.8791663  74.9263224 117.3363224  20.9121663
  75.1133224 118.5683224  20.4921663  74.9963224 119.4713224  21.0921663
  75.4673224 118.5273224  19.2191663  75.6843224 119.3263224  18.6401663
  75.4943224 117.2163224  18.8061663  75.7493224 116.8573224  17.8081663
  75.7553224 112.8303224  21.0231663  75.1223224 112.7053224  22.1251663
  76.0803224 111.7683224  20.2741663  76.7233224 111.8263224  19.4971663
  75.4633224 110.4533224  20.6091663  74.5673224 110.6333224  21.2021663
  75.0833224 109.7083224  19.2961663  75.9493224 109.6713224  18.6361663
  74.6123224 108.2423224  19.5461663  74.3603224 107.7743224  18.5951663
  75.4123224 107.6803224  20.0261663  73.7343224 108.2473224  20.1921663
  74.0823224 110.5223224  18.4621663  74.4273224 111.5533224  18.3841663
  73.1173224 110.5393224  18.9671663  73.8863224 109.9773224  17.0701663
  73.1683224 110.5983224  16.5341663  74.8393224 109.9833224  16.5391663
  73.5103224 108.9573224  17.1291663  76.3803224 109.5513224  21.4381663
  77.5843224 109.3863224  21.0991663  75.8263224 108.9253224  22.4461663
  74.9573224 109.2853224  22.8131663  76.4273224 107.7133224  23.0641663
  77.3803224 107.5133224  22.5761663  76.6513224 107.8843224  24.5881663
  77.0423224 106.9493224  24.9891663  75.6903224 108.0833224  25.0601663
  77.5933224 108.9753224  25.1031663  77.1653224 109.9553224  24.8911663
  77.6823224 108.9093224  26.6241663  78.3543224 109.6883224  26.9831663
  76.6913224 109.0593224  27.0531663  78.0643224 107.9343224  26.9241663
  78.9983224 108.8743224  24.4051663  79.6513224 109.6603224  24.7861663
  79.4403224 107.9003224  24.6171663  78.8793224 108.9923224  23.3281663
  75.4933224 106.5063224  22.8681663  74.2583224 106.6023224  23.1421663
  76.0253224 105.3653224  22.4271663  77.0133224 105.3553224  22.2191663
  75.2373224 104.1323224  22.2331663  74.2173224 104.3173224  22.5711663
  75.2173224 103.7483224  20.7531663  76.2373224 103.5803224  20.4071663
  74.8053224 104.5713224  20.1691663  74.4623224 102.5773224  20.4181663
  73.4063224 102.8353224  20.3401663  74.5793224 101.8313224  21.2051663
  74.9043224 101.9683224  19.1121663  75.9393224 101.6373224  19.1971663
  74.8443224 102.7183224  18.3221663  74.0563224 100.7793224  18.7081663
  73.1263224 101.1303224  18.2611663  73.8093224 100.1923224  19.5911663
  74.9103224 100.0293224  17.7401663  74.4143224  99.2113224  17.4161663
  75.1293224 100.6233224  16.9521663  75.7663224  99.7453224  18.1951663
  75.8723224 103.0113224  23.0901663  77.0403224 102.6743224  22.8621663
  75.1013224 102.3863224  23.9601663  74.1613224 102.7323224  24.0891663
  75.5473224 101.2273224  24.7351663  76.5853224 101.3863224  25.0301663
  74.6573224 101.0603224  25.9791663  74.8453224 100.0883224  26.4321663
  73.6093224 101.0863224  25.6831663  74.8493224 102.1133224  27.0651663
  74.2353224 103.3683224  26.9721663  73.6123224 103.5933224  26.1061663
  74.4353224 104.3253224  28.0091663  73.9933224 105.3183224  27.9261663
  75.1933224 103.9683224  29.1091663  75.3093224 104.6623224  29.9401663
  75.8093224 102.7573224  29.1831663  76.4243224 102.5113224  30.0481663
  75.6523224 101.8413224  28.1571663  76.1453224 100.8703224  28.2131663
  75.4743224  99.9283224  23.8791663  74.6913224  99.8543224  22.9311663
  76.2343224  98.8603224  24.2381663  77.2713224  98.8193224  25.2611663
  78.1473224  99.4343224  25.0071663  76.8883224  99.0833224  26.2581663
  77.6643224  97.3313224  25.2391663  78.7413224  97.2103224  25.4291663
  77.1383224  96.7783224  26.0311663  77.3233224  96.7923224  23.9431663
  78.1253224  96.9213224  23.2021663  77.0843224  95.7193224  23.9751663
  76.0963224  97.5853224  23.5241663  76.1623224  97.7683224  22.4411663
  74.7793224  96.8873224  23.8651663  74.2573224  97.0273224  24.9791663
  74.2523224  96.1013224  22.9251663  74.7143224  96.0233224  22.0301663
  73.0263224  95.3533224  23.1571663  72.2753224  96.0353224  23.5571663
  72.5383224  94.7833224  21.8541663  73.2883224  94.1033224  21.4511663
  72.4053224  95.5883224  21.1321663  71.2273224  94.0233224  21.9461663
  70.4243224  94.7293224  22.1581663  71.3003224  93.2893224  22.7481663
  70.8663224  93.2703224  20.6451663  71.7603224  92.7703224  19.9641663
  69.5883224  93.2073224  20.3091663  69.3133224  92.7293224  19.4741663
  68.8963224  93.6373224  20.8891663  73.2523224  94.2403224  24.1831663
  74.0613224  93.3313224  23.9391663  72.5823224  94.2553224  25.3481663
  71.6363224  95.2583224  25.8281663  71.9943224  96.2823224  25.6441663
  70.6373224  95.1123224  25.3911663  71.5803224  95.0113224  27.2711663
  72.2693224  95.6933224  27.7911663  70.5703224  95.2333224  27.6461663
  71.9383224  93.5973224  27.5651663  72.5063224  93.4893224  28.5011663
  71.0563224  92.9443224  27.6471663  72.8033224  93.1643224  26.3731663
  73.8603224  93.1623224  26.6781663  72.4003224  91.7753224  25.8351663
  71.3773224  91.6603224  25.1441663  73.1393224  90.7453224  26.2621663
  73.9333224  90.8933224  26.8681663  72.7983224  89.3743224  25.8481663
  72.9333224  89.2753224  24.7711663  73.6793224  88.3453224  26.5921663
  73.2183224  87.3603224  26.5311663  73.7393224  88.6133224  27.6471663
  75.0683224  88.2333224  26.0691663  75.4973224  87.2763224  25.1651663
  76.7693224  87.4843224  24.8671663  77.3813224  86.8623224  24.2151663
  77.1743224  88.5723224  25.4911663  78.0963224  88.9793224  25.4311663
  76.1263224  89.0673224  26.2461663  76.1463224  89.9573224  26.8771663
  71.3493224  89.0133224  26.1431663  70.7243224  88.3133224  25.3211663
  70.7763224  89.4883224  27.2671663  71.2833224  90.1553224  27.8311663
  69.4313224  89.0603224  27.6951663  69.4323224  87.9753224  27.8051663
  69.1353224  89.4903224  29.1411663  70.0243224  89.3233224  29.7491663
  68.9733224  91.0103224  29.2541663  68.7653224  91.2783224  30.2901663
  69.8923224  91.4993224  28.9311663  68.1463224  91.3363224  28.6231663
  67.9773224  88.7123224  29.7761663  67.8193224  89.0623224  30.7961663
  67.0693224  88.8703224  29.1931663  68.2183224  87.6493224  29.7911663
  68.3693224  89.4553224  26.6471663  67.2553224  88.9183224  26.7281663
  68.6063224  90.4863224  25.8231663  69.4923224  90.9663224  25.8931663
  67.6263224  90.9373224  24.8301663  66.6713224  90.4563224  25.0431663
  67.3073224  92.4563224  24.9231663  66.4783224  92.6853224  24.2541663
  66.7083224  92.8453224  26.2641663  66.5043224  93.9163224  26.2751663
  65.7783224  92.2983224  26.4201663  67.4113224  92.6023224  27.0611663
  68.4973224  93.3033224  24.5261663  68.2353224  94.3583224  24.6031663
  69.3353224  93.0873224  25.1901663  68.7803224  93.0743224  23.4981663
  68.0033224  90.5793224  23.3951663  67.2973224  90.9713224  22.4741663
  69.0833224  89.8253224  23.1741663  69.5843224  89.4183224  23.9501663
  69.5573224  89.5773224  21.8081663  69.6593224  90.5353224  21.2981663
  70.9853224  89.0233224  21.8321663  71.2143224  88.5653224  20.8701663
  71.0603224  88.2443224  22.5911663  72.0293224  90.1493224  22.1351663
  71.7893224  90.6033224  23.0961663  71.9793224  90.8983224  21.3451663
  73.4823224  89.6273224  22.2051663  73.7713224  88.4593224  21.8291663
  74.4183224  90.4933224  22.6941663  75.3753224  90.2093224  22.7621663
  74.1473224  91.4113224  22.9841663  68.6233224  88.7503224  20.9461663
  68.6303224  88.8943224  19.7101663  67.7803224  87.9223224  21.5231663
  67.8363224  87.8483224  22.5291663  66.7953224  87.1263224  20.8081663
  67.0213224  87.1713224  19.7421663  66.9013224  85.6223224  21.2031663
  66.7393224  85.5263224  22.2771663  65.8983224  84.7663224  20.4301663
  66.0013224  83.7233224  20.7321663  64.8863224  85.1083224  20.6461663
  66.0923224  84.8543224  19.3611663  68.3253224  85.0803224  20.8341663
  68.3973224  84.0293224  21.1121663  68.4873224  85.1843224  19.7611663
  69.0823224  85.6503224  21.3731663  65.3743224  87.6213224  20.9901663
  64.6433224  87.7753224  20.0301663  65.0043224  87.9453224  22.2311663
  65.6773224  87.8023224  22.9711663  63.7063224  88.4823224  22.5561663
  63.2393224  88.8403224  21.6371663  62.8523224  87.4023224  23.2181663
  63.4173224  86.9353224  24.0231663  62.6183224  86.6263224  22.4901663
  61.6723224  87.9543224  23.7221663  61.6333224  87.8323224  24.7161663
  63.8363224  89.6623224  23.5251663  64.3513224  89.4803224  24.6001663
  63.3753224  90.8323224  23.1561663  62.9643224  90.9393224  22.2401663
  63.4423224  91.9793224  24.0381663  64.4253224  91.9963224  24.5091663
  63.4113224  93.3093224  23.2321663  64.0143224  93.2023224  22.3311663
  63.8533224  94.1073224  23.8291663  62.1203224  93.8063224  22.7931663
  61.3903224  93.6403224  23.5851663  61.8233224  93.2693224  21.8921663
  62.0923224  95.3453224  22.4491663  63.0513224  95.9073224  22.0661663
  60.9523224  95.9403224  22.6101663  60.8643224  96.9173224  22.4101663
  60.1593224  95.4243224  22.9341663  62.4093224  91.9263224  25.1771663
  62.5293224  92.6783224  26.0841663  61.4243224  91.0763224  25.0811663
  61.3853224  90.4493224  24.2901663  60.3613224  91.0093224  26.1051663
  60.4333224  91.8953224  26.7381663  58.9903224  90.9913224  25.4371663
  58.8533224  91.9063224  24.8621663  58.2133224  90.9653224  26.2011663
  58.9053224  89.8643224  24.6041663  59.7843224  89.3843224  24.5911663
  60.4583224  89.7923224  27.0561663  59.7673224  89.7403224  28.0321663
  61.2843224  88.8393224  26.7531663  61.9303224  88.9483224  25.9841663
  61.2933224  87.5583224  27.5411663  60.2813224  87.1543224  27.5411663
  62.2073224  86.5653224  26.8301663  62.2283224  85.6273224  27.3861663
  61.8323224  86.3823224  25.8231663  63.2143224  86.9753224  26.7721663
  61.6993224  87.7703224  29.0021663  61.3083224  86.9303224  29.8391663
  62.4503224  88.8033224  29.3271663  62.8033224  89.4063224  28.5981663
  62.7913224  89.1023224  30.7411663  63.4053224  88.2893224  31.1281663
  63.5783224  90.4163224  30.8641663  64.4663224  90.3693224  30.2341663
  63.9143224  90.5443224  31.8931663  62.8513224  91.6273224  30.4941663
  62.7803224  92.1963224  29.2591663  63.2723224  91.8123224  28.3671663
  61.9893224  93.3373224  29.3041663  61.7573224  93.9233224  28.5151663
  61.5683224  93.5523224  30.5851663  60.7233224  94.5213224  31.0691663
  60.3203224  95.3093224  30.4321663  60.3893224  94.4633224  32.4201663
  59.7453224  95.2333224  32.8461663  60.8623224  93.4433224  33.2351663
  60.5573224  93.3783224  34.2801663  61.7493224  92.4693224  32.7251663
  62.1923224  91.7213224  33.3821663  62.0493224  92.4783224  31.3561663
  61.5343224  89.2133224  31.6081663  61.5993224  88.9103224  32.8271663
  60.4073224  89.6143224  31.0491663  60.4193224  89.7783224  30.0521663
  59.1653224  89.8283224  31.7921663  59.4113224  90.2743224  32.7551663
  58.1623224  90.6873224  30.9501663  57.2303224  90.8053224  31.5041663
  57.9273224  90.1673224  30.0231663  58.6663224  92.0643224  30.5931663
  59.5613224  91.9763224  29.9781663  58.9303224  92.6023224  31.5031663
  57.4763224  93.1093224  29.6701663  56.6203224  93.3373224  30.9961663
  55.7643224  93.9733224  30.7711663  56.2703224  92.3753224  31.3731663
  57.2413224  93.8183224  31.7521663  58.4273224  88.5783224  32.0831663
  57.4583224  88.6393224  32.8601663  58.8203224  87.4473224  31.5191663
  59.6163224  87.4473224  30.8981663  58.1093224  86.1713224  31.7831663
  57.0363224  86.3553224  31.7271663  58.4393224  85.0963224  30.7261663
  57.8733224  84.1903224  30.9401663  58.0783224  85.5823224  29.2651663
  58.3243224  84.7983224  28.5491663  57.0123224  85.8043224  29.2081663
  58.6483224  86.4803224  29.0291663  59.8243224  84.7153224  30.8291663
  60.4123224  85.4513224  30.4821663  58.4303224  85.6363224  33.1961663
  59.5363224  85.7953224  33.7131663  57.4523224  84.9953224  33.8051663
  56.5373224  84.9923224  33.3781663  57.6483224  84.2963224  35.0661663
  58.0033224  85.0133224  35.8071663  56.3413224  83.7273224  35.5871663
  56.5493224  82.9853224  36.3581663  55.8163224  83.2203224  34.7771663
  55.4343224  84.7613224  36.1611663  55.7453224  85.9443224  36.2431663
  54.3383224  84.3213224  36.6181663  58.6763224  83.2113224  34.9111663
  59.4723224  82.9633224  35.8411663  58.7393224  82.5543224  33.7761663
  58.0493224  82.7763224  33.0731663  59.7383224  81.5413224  33.4911663
  59.6393224  80.7413224  34.2251663  59.5103224  80.8603224  32.1081663
  60.3563224  80.2133224  31.8771663  59.4593224  81.6233224  31.3311663
  58.2653224  80.0143224  31.9691663  58.1823224  79.3633224  32.8381663
  58.3633224  79.3843224  31.0851663  56.9813224  80.8593224  31.8401663
  56.9663224  82.0683224  31.5241663  55.8713224  80.2753224  32.0991663
  61.1643224  82.0893224  33.6001663  62.0073224  81.4663224  34.2771663
  61.4403224  83.2563224  33.0191663  60.7293224  83.7773224  32.5261663
  62.7733224  83.7873224  33.0921663  63.4783224  82.9853224  32.8691663
  62.9563224  84.9163224  32.0381663  62.2953224  85.7493224  32.2781663
  62.6703224  84.5453224  31.0541663  64.3533224  85.4293224  31.9621663
  64.6223224  85.8643224  32.9241663  64.3993224  86.2183224  31.2121663
  65.4173224  84.4153224  31.6081663  65.1213224  83.3233224  31.0411663
  66.6543224  84.7563224  31.7741663  63.1133224  84.3143224  34.4841663
  64.2353224  84.1513224  34.9501663  62.1513224  84.9553224  35.1771663
  61.2553224  85.1263224  34.7431663  62.3833224  85.4223224  36.5861663
  63.1543224  86.1933224  36.5721663  61.0493224  86.0093224  37.0891663
  60.2393224  85.3163224  36.8651663  60.8393224  86.9393224  36.5621663
  60.9523224  86.3263224  38.5961663  61.5693224  87.4253224  39.1661663
  62.2133224  88.0533224  38.5501663  61.3753224  87.7263224  40.4951663
  61.8403224  88.6123224  40.9261663  60.6053224  86.9373224  41.3081663
  60.4743224  87.1983224  42.3571663  60.0083224  85.8093224  40.7581663
  59.4153224  85.1463224  41.3871663  60.1663224  85.5293224  39.4231663
  59.6973224  84.6433224  38.9931663  62.8593224  84.2703224  37.4781663
  63.8543224  84.4093224  38.2091663  62.2163224  83.1183224  37.4131663
  61.4253224  83.0313224  36.7911663  62.6203224  81.9643224  38.2201663
  62.8083224  82.3113224  39.2361663  61.4723224  80.9603224  38.2531663
  61.7613224  80.0963224  38.8511663  60.5923224  81.4283224  38.6941663
  61.2423224  80.6383224  37.2391663  63.8993224  81.3413224  37.7031663
  64.7713224  80.9403224  38.4661663  64.0643224  81.2283224  36.3891663
  63.3533224  81.5723224  35.7591663  65.2583224  80.6143224  35.8391663
  65.3403224  79.6013224  36.2351663  65.1483224  80.5503224  34.2841663
  65.2433224  81.5543224  33.8711663  64.1653224  80.1733224  34.0041663
  66.2183224  79.6483224  33.5911663  65.9863224  78.5993224  33.7781663
  67.2053224  79.8793224  33.9931663  66.2493224  79.8843224  32.0111663
  65.2313224  79.8763224  31.6221663  66.8253224  79.0913224  31.5361663
  66.8613224  81.1653224  31.6551663  66.2473224  81.9573224  31.5161663
  68.1513224  81.3673224  31.5021663  69.0113224  80.3893224  31.5761663
  68.6913224  79.4483224  31.7551663  69.9963224  80.5733224  31.4541663
  68.5993224  82.5633224  31.2341663  67.9543224  83.3363224  31.1441663
  69.5903224  82.7163224  31.1171663  66.5543224  81.3363224  36.2071663
  67.5373224  80.7383224  36.4261663  66.4863224  82.6553224  36.2861663
  65.6213224  83.1413224  36.0981663  67.6673224  83.4253224  36.6481663
  68.4893224  83.1243224  35.9981663  67.4833224  84.9053224  36.3331663
  68.2713224  85.4813224  36.8191663  66.5303224  85.2473224  36.7371663
  67.5223224  85.1613224  34.7681663  66.6663224  84.6683224  34.3091663
  68.4273224  84.7123224  34.3591663  67.5043224  86.6263224  34.3261663
  67.7813224  87.5293224  35.0961663  67.2163224  86.8343224  33.1211663
  68.1393224  83.1763224  38.1051663  69.1993224  83.4673224  38.4321663
  67.2823224  82.5773224  38.9171663  66.3383224  82.3983224  38.6061663
  67.6853224  82.1593224  40.2881663  68.2533224  82.9703224  40.7441663
  66.4493224  81.9243224  41.1821663  66.7733224  81.6613224  42.1901663
  65.8743224  81.0853224  40.7941663  65.5753224  83.1563224  41.2361663
  65.3083224  83.4573224  40.2231663  66.1263224  83.9733224  41.7001663
  64.0743224  82.8513224  42.1731663  63.1713224  84.3693224  41.8541663
  62.2113224  84.3363224  42.3691663  63.7493224  85.2203224  42.2161663
  63.0043224  84.4753224  40.7821663  68.5983224  80.9323224  40.3301663
  69.2533224  80.7003224  41.2681663  68.6353224  80.1813224  39.2411663
  68.0243224  80.4403224  38.4801663  69.5133224  79.0033224  39.0901663
  70.0963224  78.8873224  40.0031663  68.7063224  77.6533224  38.9831663
  69.3873224  76.8423224  38.7281663  68.0403224  77.3613224  40.3271663
  67.4793224  76.4293224  40.2601663  68.8033224  77.2713224  41.0991663
  67.3613224  78.1753224  40.5811663  67.6613224  77.6893224  37.8311663
  68.1343224  78.0633224  36.9221663  66.8593224  78.3803224  38.0891663
  67.0603224  76.3303224  37.5421663  66.3383224  76.4173224  36.7291663
  67.8503224  75.6363224  37.2531663  66.5583224  75.9573224  38.4341663
  70.5333224  79.1163224  37.9371663  71.4813224  78.3163224  37.8661663
  70.3923224  80.1283224  37.0451663  69.6313224  80.7743224  37.2011663
  71.2693224  80.3263224  35.8921663  72.2433224  79.8993224  36.1301663
  70.6883224  79.5983224  34.6461663  71.3493224  79.7523224  33.7931663
  70.6063224  78.5313224  34.8531663  69.7023224  79.9993224  34.4171663
  71.5373224  81.7773224  35.5301663  72.0273224  82.0793224  34.4271663
  71.2203224  82.7013224  36.4351663  70.8113224  82.3673224  37.2961663
  71.4273224  84.1373224  36.2551663  70.5943224  84.6833224  36.6961663
  71.4383224  84.3733224  35.1911663  72.7093224  84.6813224  36.8621663
  73.6403224  83.9593224  37.1461663  72.7033224  86.0103224  37.0861663
  71.8703224  86.5253224  36.8391663  73.8423224  86.7293224  37.6671663
  74.7283224  86.5163224  37.0681663  73.6453224  88.2803224  37.5491663
  73.2333224  88.5113224  36.5671663  72.6733224  88.8243224  38.5661663
  72.5763224  89.9023224  38.4361663  71.7003224  88.3543224  38.4271663
  73.0403224  88.6123224  39.5701663  74.9653224  89.0213224  37.7131663
  74.7933224  90.0933224  37.6251663  75.3873224  88.8003224  38.6931663
  75.6613224  88.7003224  36.9381663  74.1273224  86.3013224  39.0981663
  75.2713224  86.3903224  39.5691663  73.1173224  85.8573224  39.8571663
  72.2483224  85.7323224  39.3581663  73.1673224  85.5553224  41.2711663
  74.2133224  85.4843224  41.5731663  72.4683224  86.6943224  42.0701663
  71.3933224  86.6563224  41.8921663  72.8253224  87.6613224  41.7131663
  72.6983224  86.6303224  43.5531663  73.7723224  86.2543224  44.0311663
  71.6933224  87.0693224  44.3501663  71.7973224  87.0473224  45.3451663
  70.8483224  87.4153224  43.9441663  72.5183224  84.2053224  41.5641663
  71.4203224  84.1513224  42.1331663  73.1433224  83.0953224  41.1511663
  74.4633224  83.0663224  40.4511663  74.4643224  83.6223224  39.5021663
  75.2943224  83.3943224  41.0931663  74.6013224  81.5253224  40.1581663
  75.2113224  81.3013224  39.2701663  75.0363224  80.9573224  40.9941663
  73.1393224  81.0923224  39.9231663  72.7023224  81.4503224  38.9791663
  72.9723224  80.0063224  39.9631663  72.4483224  81.7753224  41.1151663
  71.3793224  81.9353224  40.9111663  72.5673224  80.9393224  42.3701663
  72.3523224  79.6923224  42.2671663  72.8853224  81.5553224  43.5031663
  72.7943224  82.5613224  43.5091663  73.3493224  80.8743224  44.7131663
  73.1583224  79.8063224  44.6041663  74.8933224  81.0663224  44.8811663
  75.4173224  80.4803224  44.1261663  75.2023224  80.6923224  45.8571663
  75.4233224  82.8133224  44.7331663  75.3003224  83.1073224  43.7891663
  72.6763224  81.2703224  46.0181663  73.2413224  81.0303224  47.0801663
  71.4463224  81.7783224  45.9461663  70.9993224  81.8853224  45.0461663
  70.7393224  82.1783224  47.1301663  71.4053224  82.0633224  47.9861663
  70.3763224  83.7123224  47.0871663  69.7103224  83.8953224  46.2441663
  69.6573224  84.2113224  48.3121663  69.4443224  85.2753224  48.2011663
  68.7213224  83.6653224  48.4321663  70.2843224  84.0573224  49.1901663
  71.6683224  84.5653224  46.9191663  71.4053224  85.6223224  46.8901663
  72.3383224  84.3803224  47.7591663  72.1673224  84.2903224  45.9901663
  69.4953224  81.3243224  47.3971663  69.1033224  81.1233224  48.5401663
  68.8553224  80.8103224  46.3351663  69.2153224  81.0263224  45.4171663
  67.6483224  79.9433224  46.4561663  66.8183224  80.5543224  46.8081663
  67.2553224  79.3933224  45.0841663  66.9903224  80.2183224  44.4241663
  68.4413224  78.5583224  44.3701663  68.0983224  78.1953224  43.4011663
  69.3073224  79.2043224  44.2291663  68.7183224  77.7113224  44.9981663
  65.9073224  78.6833224  45.1361663  65.1933224  79.2983224  45.6841663
  66.0113224  77.7443224  45.6781663  65.3673224  78.4063224  43.6901663
  64.4043224  77.8993224  43.7521663  65.2463224  79.3513224  43.1591663
  66.0743224  77.7763224  43.1531663  67.8843224  78.8043224  47.4761663
  68.9943224  78.2043224  47.5091663  66.8583224  78.4843224  48.2421663
  66.0073224  79.0153224  48.1251663  66.8983224  77.4063224  49.2411663
  67.8003224  76.8153224  49.0771663  66.8763224  78.0003224  50.6531663
  66.6683224  77.2113224  51.3761663  66.0733224  78.7323224  50.7271663
  68.1273224  78.6693224  51.0711663  68.3913224  79.4363224  50.3421663
  68.9303224  77.9343224  51.1321663  68.0453224  79.3583224  52.4361663
  67.6013224  78.6773224  53.1611663  67.4293224  80.2533224  52.3551663
  69.3833224  79.7483224  52.9141663  69.8743224  80.4673224  52.4001663
  70.0503224  79.2673224  53.9601663  69.5433224  78.3273224  54.7531663
  68.6223224  77.9543224  54.5701663  70.0793224  77.9863224  55.5381663
  71.2513224  79.7713224  54.2291663  71.6353224  80.5013224  53.6451663
  71.7793224  79.4253224  55.0161663  65.6943224  76.4843224  49.1221663
  64.6533224  76.8663224  48.6571663  65.8763224  75.2243224  49.5521663
  66.8073224  74.8913224  49.7591663  64.7503224  74.3273224  49.7261663
  65.1153224  73.3243224  49.9451663  64.1853224  74.2673224  48.7961663
  63.8573224  74.7903224  50.8281663  64.3043224  75.3733224  51.8461663
  62.5733224  74.5033224  50.6921663  62.2673224  74.0443224  49.8461663
  61.5723224  74.8333224  51.7391663  62.0953224  75.2533224  52.5981663
  60.6513224  75.9623224  51.2701663  60.1833224  75.6623224  50.3331663
  61.2553224  76.8483224  51.0821663  59.5083224  76.3963224  52.2201663
  58.8843224  75.5343224  52.4561663  60.0963224  76.8613224  53.5711663
  59.2873224  77.1653224  54.2351663  60.6513224  76.0413224  54.0281663
  60.7653224  77.7053224  53.4051663  58.6903224  77.4663224  51.4951663
  57.8723224  77.7963224  52.1371663  59.3313224  78.3163224  51.2581663
  58.2833224  77.0503224  50.5731663  60.8553224  73.5613224  52.1261663
  60.1653224  72.9483224  51.3401663  61.0243224  73.1173224  53.3851663
  61.4873224  73.7433224  54.0291663  60.5823224  71.8033224  53.8601663
  60.2093224  71.2343224  53.0071663  61.7263224  71.0083224  54.4701663
  61.3233224  70.1843224  55.0591663  62.2933224  71.6473224  55.1471663
  62.6673224  70.4473224  53.4271663  63.2113224  71.2693224  52.9641663
  62.0813224  69.9533224  52.6531663  63.6473224  69.4483224  54.0631663
  63.3133224  68.2273224  54.0861663  64.7073224  69.9003224  54.5511663
  59.4433224  71.8693224  54.8721663  58.9793224  70.8223224  55.3761663
  58.9793224  73.0753224  55.1651663  59.4893224  73.8693224  54.8041663
  57.7763224  73.3063224  55.9781663  57.1633224  72.4053224  55.9521663
  58.1233224  73.5763224  57.4601663  58.7643224  72.7783224  57.8351663
  57.2093224  73.5693224  58.0551663  58.8253224  74.9023224  57.6491663
  58.1713224  75.7003224  57.3001663  59.7273224  74.9143224  57.0371663
  59.2263224  75.1893224  59.1261663  58.4393224  74.8673224  60.0491663
  60.3133224  75.7803224  59.3111663  56.9863224  74.4623224  55.4051663
  57.4993224  75.2613224  54.5991663  55.7293224  74.5803224  55.7611663
  55.3503224  73.8993224  56.4041663  54.8733224  75.6403224  55.2711663
  55.4973224  76.4973224  55.0131663  54.0953224  75.2923224  53.9571663
  53.2013224  74.7203224  54.2041663  54.7183224  74.6653224  53.3201663
  53.6943224  76.5233224  53.1921663  52.4743224  77.1853224  53.4381663
  51.7683224  76.7543224  54.1481663  52.2033224  78.3773224  52.7661663
  51.2593224  78.8943224  52.9341663  53.0963224  78.9063224  51.9051663
  52.8673224  79.8333224  51.3821663  54.3243224  78.3013224  51.6511663
  55.0213224  78.7583224  50.9491663  54.6073224  77.1063224  52.3271663
  55.5573224  76.5973224  52.1591663  53.9033224  76.0073224  56.3871663
  53.2923224  75.1053224  56.9791663  53.7223224  77.3073224  56.6581663
  52.9183224  77.6283224  57.8601663  51.8383224  77.5273224  57.6791663
  53.2233224  77.0283224  58.7301663  53.2593224  79.0973224  58.1091663
  52.4643224  79.6613224  58.6191663  54.1813224  79.2513224  58.6891663
  53.4383224  79.6063224  56.7051663  52.4973224  79.7123224  56.1461663
  53.9583224  80.5733224  56.6441663  54.3013224  78.5063224  56.0761663
  54.2193224  78.4523224  54.9801663  55.7473224  78.6893224  56.4841663
  56.2163224  78.1193224  57.4681663  56.4763224  79.5253224  55.7301663
  56.0733224  80.2313224  54.4861663  55.9093224  79.5323224  53.6531663
  55.1833224  80.8573224  54.6491663  57.2223224  81.0853224  54.1871663
  57.4223224  81.0663224  53.1061663  56.9843224  82.1273224  54.4481663
  58.4093224  80.6333224  54.9321663  59.0843224  80.0273224  54.3091663
  59.0003224  81.4753224  55.3211663  57.8643224  79.7813224  56.1061663
  58.3993224  78.8233224  56.1881663  57.9743224  80.5583224  57.4311663
  57.0813224  81.3393224  57.7391663  59.0543224  80.3023224  58.1501663
  59.7653224  79.6833224  57.7871663  59.2433224  80.9133224  59.4941663
  58.3083224  81.3903224  59.7921663  59.5743224  79.8363224  60.5161663
  59.8733224  80.3043224  61.4541663  60.4193224  79.2453224  60.1611663
  58.4273224  78.8793224  60.8151663  58.1013224  78.4023224  59.8911663
  57.5873224  79.4363224  61.2321663  58.8063224  77.7473224  61.8331663
  59.4523224  77.0183224  61.3431663  57.9003224  77.2383224  62.1661663
  59.5453224  78.2363224  63.0931663  58.9133224  78.9393224  63.6361663
  60.4583224  78.7533224  62.8011663  59.9003224  77.0993224  64.0041663
  60.3813224  77.4563224  64.8171663  59.0573224  76.6233224  64.2941663
  60.5013224  76.4513224  63.5161663  60.3283224  82.0023224  59.4971663
  61.1643224  82.1163224  58.5971663  60.2593224  82.8723224  60.5201663
  59.4913224  82.7603224  61.1671663  61.2183224  83.9473224  60.7371663
  61.9963224  83.8763224  59.9751663  60.5283224  85.3233224  60.6871663
  59.6553224  85.3163224  61.3391663  60.1783224  85.5183224  59.6741663
  61.4123224  86.3563224  61.0901663  62.1083224  86.4913224  60.3871663
  61.8363224  83.8093224  62.0891663  61.1353224  83.4503224  63.0341663
  63.1263224  84.1283224  62.1801663  63.6333224  84.3603224  61.3381663
  63.8263224  84.1513224  63.4601663  63.2693224  83.5383224  64.1701663
  65.2073224  83.5273224  63.2861663  65.9263224  84.0533224  63.9141663
  65.5313224  83.6423224  62.2511663  65.2083224  82.0333224  63.6551663
  64.2843224  81.2803224  63.2971663  66.2143224  81.6163224  64.4501663
  66.2693224  80.6563224  64.7251663  66.9053224  82.2663224  64.7651663
  63.9093224  85.5393224  64.0921663  64.4943224  85.7063224  65.2011663
  63.2853224  86.5413224  63.4571663  62.7523224  86.4183224  62.6081663
  63.3953224  87.8863224  64.0471663  64.3863224  87.9913224  64.4871663
  63.2883224  88.9743224  62.9881663  63.3673224  89.9453224  63.4781663
  62.3083224  88.9063224  62.5181663  64.3193224  89.0103224  61.8111663
  64.2773224  88.0693224  61.2611663  63.9873224  90.0763224  60.7911663
  64.7313224  90.0613224  59.9941663  63.0013224  89.8823224  60.3691663
  63.9903224  91.0533224  61.2721663  65.7053224  89.2013224  62.2901663
  66.3853224  89.2193224  61.4381663  65.7763224  90.1453224  62.8311663
  65.9773224  88.3813224  62.9541663  62.4003224  88.1843224  65.1721663
  61.3133224  87.5603224  65.3341663  62.7773224  89.1533224  66.0491663
  63.6123224  89.6893224  65.8631663  61.9943224  89.4403224  67.2671663
  61.7363224  88.4943224  67.7431663  62.8973224  90.2613224  68.1811663
  63.0553224  91.2483224  67.7461663  63.8713224  89.7783224  68.2591663
  62.3483224  90.4403224  69.5661663  61.2343224  89.9553224  69.8281663
  62.9843224  91.1523224  70.3341663  60.6743224  90.1723224  66.9881663
  60.7083224  91.3203224  66.5191663  59.5373224  89.5383224  67.2611663
  59.3023224  88.1603224  67.7741663  59.4693224  87.3943224  67.0021663
  59.9063224  87.9483224  68.6681663  57.8393224  88.1883224  68.1491663
  57.3663224  87.1993224  68.0621663  57.6793224  88.5263224  69.1841663
  57.2163224  89.1383224  67.1991663  56.9663224  88.6713224  66.2351663
  56.2893224  89.5823224  67.5911663  58.2613224  90.2163224  66.9971663
  58.2283224  90.5263224  65.9421663  58.0693224  91.4363224  67.9241663
  57.2503224  92.2753224  67.6151663  58.7373224  91.4773224  69.0841663
  59.3053224  90.7123224  69.4181663  58.6303224  92.6873224  69.8901663
  57.5743224  92.8673224  70.0921663  59.3333224  92.4843224  71.2421663
  59.2473224  93.3933224  71.8371663  58.8653224  91.6563224  71.7751663
  60.3853224  92.2583224  71.0741663  59.1523224  93.9693224  69.1841663
  58.7263224  95.0883224  69.5501663  60.1263224  93.8183224  68.2841663
  60.4723224  92.8793224  68.1451663  60.7133224  94.9283224  67.4961663
  60.6823224  95.8343224  68.0991663  62.1953224  94.6713224  67.1851663
  62.2933224  93.7453224  66.6201663  62.8443224  95.8233224  66.3371663
  63.8913224  95.5893224  66.1471663  62.3163224  95.9183224  65.3891663
  62.7763224  96.7623224  66.8861663  63.0093224  94.4603224  68.4641663
  62.4773224  93.7763224  69.1261663  63.1123224  95.4083224  68.9901663
  64.3313224  93.9173224  68.1321663  64.9043224  93.7693224  69.0481663
  64.2143224  92.9623224  67.6191663  64.8583224  94.6153224  67.4841663
  59.9643224  95.2183224  66.2201663  59.7533224  96.3863224  65.8981663
  59.6163224  94.1673224  65.4701663  59.7053224  93.2393224  65.8601663
  59.1083224  94.3233224  64.0941663  59.2463224  95.3613224  63.7901663
  59.8923224  93.4213224  63.0981663  59.5553224  93.6233224  62.0821663
  59.6793224  92.3723224  63.3111663  61.3763224  93.6383224  63.1681663
  61.9583224  94.8053224  62.6681663  61.3353224  95.5683224  62.2011663
  63.3283224  95.0343224  62.7451663  63.7503224  95.9563224  62.3451663
  64.1543224  94.0813224  63.3691663  65.4823224  94.3383224  63.4611663
  65.9363224  94.0793224  62.6071663  63.5773224  92.9123224  63.8751663
  64.2123224  92.1483224  64.3241663  62.2113224  92.7223224  63.8081663
  61.7893224  91.8303224  64.2701663  57.6223224  94.0413224  63.9311663
  57.0863224  94.2503224  62.8111663  56.9413224  93.6653224  65.0351663
  57.4163224  93.7563224  65.9211663  55.6083224  93.1553224  65.0101663
  55.0163224  93.7193224  64.2901663  55.1463224  93.2973224  65.9871663
  55.5353224  91.6553224  64.6421663  56.5443224  91.0363224  64.3161663
  54.3553224  91.0933224  64.7081663  53.5633224  91.6583224  64.9811663
  54.1463224  89.6603224  64.3961663  54.6153224  89.0633224  65.1791663
  52.6313224  89.4513224  64.3331663  52.2043224  90.1113224  63.5781663
  52.1863224  89.7193224  65.2921663  52.2063224  87.9993224  63.9971663
  53.0413224  87.1053224  63.7981663  50.9853224  87.7633224  63.9811663
  54.7923224  89.2653224  63.0491663  54.5723224  89.9363224  62.0631663
  55.6953224  88.2903224  63.0601663  55.8273224  87.8163224  63.9421663
  56.4943224  87.8713224  61.8921663  56.4683224  88.6693224  61.1511663
  57.9463224  87.6363224  62.3211663  58.5043224  87.2013224  61.4921663
  57.9713224  86.9213224  63.1431663  58.7033224  88.8663224  62.7741663
  59.7123224  88.5733224  63.0621663  58.1843224  89.3063224  63.6261663
  58.8113224  89.9263224  61.6871663  59.6693224  89.8133224  60.7561663
  57.9433224  90.9373224  61.7321663  57.9773224  91.6573224  61.0381663
  57.2583224  90.9763224  62.4591663  55.9813224  86.6273224  61.1851663
  56.6823224  86.0803224  60.2841663  54.7723224  86.2023224  61.5411663
  54.3113224  86.6613224  62.3141663  54.0923224  85.1023224  60.8581663
  54.6993224  84.2013224  60.9631663  52.7073224  84.8863224  61.4821663
  52.2113224  84.0533224  60.9861663  52.0943224  85.7733224  61.3241663
  52.7663224  84.6133224  62.8931663  52.8923224  85.4713224  63.3831663
  53.9363224  85.4313224  59.3831663  53.7433224  86.5973224  59.0131663
  54.0813224  84.4293224  58.5151663  54.3783224  83.5193224  58.8371663
  53.8063224  84.6353224  57.0471663  54.2593224  85.5783224  56.7391663
  54.4443224  83.5353224  56.2271663  54.0913224  82.5673224  56.5801663
  55.5253224  83.5593224  56.3651663  54.1663224  83.6353224  54.8361663
  54.6083224  84.4513224  54.4681663  52.3243224  84.6903224  56.7931663
  51.5333224  83.9723224  57.4191663  51.8823224  85.5493224  55.8821663
  52.5203224  86.1993224  55.4451663  50.4633224  85.5693224  55.4961663
  49.8983224  84.9863224  56.2241663  49.9333224  87.0053224  55.4501663
  49.0103224  87.0343224  54.8711663  50.6573224  87.6443224  54.9441663
  49.6523224  87.6013224  56.8151663  49.3253224  88.6343224  56.7001663
  50.5653224  87.5923224  57.4111663  48.5513224  86.7943224  57.5531663
  48.2993224  87.2943224  58.4881663  48.9243224  85.7953224  57.7841663
  47.2633224  86.6413224  56.7381663  46.9983224  87.6003224  56.2931663
  46.4513224  86.3353224  57.3961663  47.2623224  85.6393224  55.5871663
  46.3573224  85.6413224  55.1391663  47.9713224  85.8973224  54.9141663
  47.4583224  84.7153224  55.9441663  50.2173224  84.9313224  54.1231663
  49.1823224  85.1853224  53.5011663  51.1983224  84.1703224  53.6371663
  52.1133224  84.1393224  54.0631663  50.9303224  83.3383224  52.4231663
  50.3373224  83.9273224  51.7241663  52.2453224  82.8893224  51.7411663
  52.8123224  82.2573224  52.4241663  51.9363224  82.0853224  50.4451663
  52.8703224  81.7773224  49.9771663  51.3483224  81.2033224  50.6961663
  51.3733224  82.7123224  49.7531663  53.2033224  84.0263224  51.3651663
  53.1903224  84.7863224  52.1471663  52.8623224  84.4993224  50.4451663
  54.6563224  83.5593224  51.1651663  55.2803224  84.4133224  50.9011663
  55.0253224  83.1123224  52.0891663  54.6943224  82.8223224  50.3641663
  50.1573224  82.0913224  52.8271663  50.6163224  81.3823224  53.7491663
  49.0063224  81.9113224  52.2181663  48.6583224  82.5973224  51.5641663
  48.2063224  80.7003224  52.4831663  48.5113224  80.2883224  53.4451663
  46.7243224  81.0103224  52.5721663  46.1803224  80.1083224  52.8511663
  46.4443224  82.1303224  53.6481663  45.3743224  82.3333224  53.6921663
  46.7903224  81.7913224  54.6241663  46.9743224  83.0403224  53.3721663
  46.2113224  81.4003224  51.3181663  46.1163224  82.4043224  51.2631663
  48.4203224  79.5773224  51.4351663  48.4333224  79.8263224  50.2111663
  48.6063224  78.3493224  51.9411663  48.5823224  78.1833224  52.9371663
  48.8533224  77.2083224  51.0231663  49.7893224  77.3933224  50.4971663
  48.9603224  75.9113224  51.8121663  49.1413224  75.0823224  51.1271663
  49.7853224  75.9833224  52.5211663  48.0323224  75.7373224  52.3541663
  47.7613224  77.0843224  50.0061663  48.0123224  76.8093224  48.8501663
  46.5163224  77.2643224  50.4261663  46.3513224  77.5893224  51.3681663
  45.3773224  77.0023224  49.5551663  45.4903224  76.0053224  49.1281663
  44.0713224  76.9653224  50.4001663  43.2073224  76.9423224  49.7351663
  43.9993224  77.8733224  50.9991663  43.9963224  75.7423224  51.3481663
  44.7843224  74.7743224  51.2081663  43.1293224  75.7453224  52.2451663
  45.2633224  77.9793224  48.3541663  44.5943224  77.6753224  47.3721663
  45.9483224  79.1393224  48.4181663  46.4783224  79.3403224  49.2541663
  45.9483224  80.1173224  47.3161663  44.9523224  80.1363224  46.8701663
  46.3433224  81.5373224  47.8271663  45.6693224  81.8353224  48.6291663
  46.2303224  82.2593224  47.0191663  47.6773224  81.5993224  48.3081663
  47.8083224  80.9063224  49.0151663  46.9223224  79.7883224  46.1891663
  46.8873224  80.4533224  45.1511663  47.7953224  78.7923224  46.3821663
  47.6853224  78.1833224  47.1801663  48.9283224  78.5613224  45.4441663
  49.1823224  79.5083224  44.9681663  50.1443224  78.0913224  46.1931663
  50.9853224  78.0513224  45.5011663  49.9573224  77.0843224  46.5621663
  50.5823224  78.9263224  47.3781663  49.8253224  78.8723224  48.1611663
  51.7853224  78.3903224  48.0671663  52.0433224  79.0373224  48.9061663
  51.5763224  77.3863224  48.4361663  52.6193224  78.3543224  47.3671663
  50.7593224  80.3933224  46.9281663  51.0743224  80.9993224  47.7781663
  51.5163224  80.4453224  46.1451663  49.8123224  80.7723224  46.5431663
  48.5773224  77.5733224  44.3651663  47.9083224  76.5783224  44.6371663
  49.0923224  77.7913224  43.1681663  49.6183224  78.6393224  43.0121663
  48.9233224  76.8383224  42.0591663  48.0943224  76.1723224  42.2991663
  48.5573224  77.5903224  40.7581663  49.3623224  78.2763224  40.4951663
  47.6593224  78.1863224  40.9231663  48.3043224  76.6353224  39.5481663
  48.8423224  75.5203224  39.4961663  47.5963224  77.0413224  38.5771663
  50.2253224  76.0063224  41.9021663  51.2243224  76.4743224  41.3301663
  50.1903224  74.7653224  42.3991663  49.3133224  74.4683224  42.8021663
  51.3243224  73.8353224  42.3921663  52.2253224  74.3903224  42.1321663
  51.5643224  73.2283224  43.8001663  52.4763224  72.6313224  43.7711663
  50.7313224  72.5693224  44.0411663  51.7033224  74.2683224  44.9401663
  50.7683224  74.8183224  45.0471663  51.9703224  73.5123224  46.2591663
  52.0713224  74.2283224  47.0751663  51.1383224  72.8403224  46.4681663
  52.8893224  72.9353224  46.1681663  52.8413224  75.2983224  44.6621663
  52.9003224  76.0073224  45.4881663  53.7923224  74.7733224  44.5661663
  52.6283224  75.8353224  43.7371663  51.0773224  72.7343224  41.3371663
  51.4233224  71.5483224  41.5881663  50.4793224  73.0743224  40.1961663
  50.1513224  74.0233224  40.0851663  50.2823224  72.1113224  39.0941663
  49.6783224  72.5883224  38.3221663  51.6103224  71.7303224  38.4241663
  51.4343224  70.9463224  37.6871663  52.2933224  71.3293224  39.1731663
  52.3143224  72.8813224  37.7201663  51.6923224  73.9073224  37.3491663
  53.5133224  72.7313224  37.4611663  49.5433224  70.8563224  39.5621663
  49.7983224  69.7473224  38.9971663  48.6113224  70.9933224  40.5011663
  48.4543224  71.9173224  40.8771663  47.8163224  69.8763224  41.0041663
  47.7303224  69.1133224  40.2311663  46.8063224  70.2203224  41.2291663
  48.3113224  69.1703224  42.2441663  47.5993224  68.3223224  42.8191663
  49.5363224  69.4563224  42.6411663  50.1003224  70.0573224  42.0571663
  50.1083224  68.9323224  43.9001663  49.9163224  67.8603224  43.9471663
  51.6423224  69.1683224  43.9301663  52.0043224  69.0743224  44.9531663
  51.8613224  70.1843224  43.5971663  52.4473224  68.1933224  43.0481663
  52.3783224  68.2693224  41.6611663  51.7803224  69.0473224  41.1871663
  53.0493224  67.3823224  40.8441663  52.9713224  67.4733224  39.7611663
  53.8243224  66.4033224  41.4261663  54.4433224  65.4323224  40.6081663
  54.0093224  65.4573224  39.7161663  53.9373224  66.2823224  42.7991663
  54.5113224  65.4753224  43.2551663  53.2863224  67.2363224  43.6161663
  53.4423224  67.2203224  44.6951663  49.4363224  69.5893224  45.1171663
  49.2003224  70.8023224  45.0521663  49.2483224  68.8163224  46.1841663
  49.3293224  67.8133224  46.1001663  48.9213224  69.4043224  47.4991663
  48.2153224  70.2213224  47.3471663  48.3233224  68.4153224  48.4721663
  48.0413224  68.9323224  49.3891663  47.0973224  67.7433224  47.9021663
  46.6963224  67.0393224  48.6311663  46.3443224  68.4963224  47.6711663
  47.3663224  67.2083224  46.9921663  49.3053224  67.4643224  48.8131663
  49.4623224  66.8183224  48.0531663  50.2093224  69.9193224  48.0951663
  51.3243224  69.5803224  47.6891663  50.0943224  70.8003224  49.0731663
  49.1813224  71.1253224  49.3571663  51.2763224  71.3153224  49.7551663
  51.9223224  71.7893224  49.0171663  50.8663224  72.3623224  50.8161663
  50.2253224  71.8923224  51.5631663  50.2883224  73.1543224  50.3411663
  52.0613224  73.0333224  51.5701663  52.5533224  72.2943224  52.2021663
  51.6863224  73.8323224  52.2091663  53.3263224  73.7503224  50.6111663
  52.4923224  75.1963224  50.0031663  53.1703224  75.7673224  49.3681663
  51.6183224  74.8963224  49.4241663  52.1753224  75.8143224  50.8441663
  52.0843224  70.1743224  50.4141663  53.3103224  70.1653224  50.3221663
  51.4243224  69.2393224  51.0781663  50.4193224  69.2913224  51.1641663
  52.1363224  68.1173224  51.6971663  52.8673224  68.5173224  52.4001663
  51.1803224  67.2553224  52.5351663  51.6333224  66.2803224  52.7161663
  50.2573224  67.0893224  51.9791663  50.8473224  67.9223224  53.8901663
  51.5353224  68.9113224  54.3291663  49.9023224  67.4013224  54.5041663
  52.9043224  67.2743224  50.6431663  54.0233224  66.8763224  50.8851663
  52.2993224  67.0763224  49.4871663  51.3593224  67.4283224  49.3791663
  52.9403224  66.3633224  48.3521663  53.3023224  65.3983224  48.7091663
  51.9303224  66.1333224  47.2221663  52.4623224  65.8883224  46.3031663
  51.3703224  67.0513224  47.0421663  50.9503224  65.0263224  47.5151663
  50.5763224  65.1453224  48.5311663  51.4703224  64.0703224  47.4581663
  49.7733224  64.9543224  46.5971663  49.5943224  65.8543224  45.7601663
  48.9823224  63.9453224  46.7621663  54.1403224  67.1503224  47.8021663
  55.2223224  66.5853224  47.5921663  53.9973224  68.4783224  47.6731663
  53.1213224  68.9143224  47.9231663  55.1103224  69.3263224  47.1661663
  55.4603224  68.8993224  46.2261663  54.5873224  70.7523224  46.8691663
  55.4053224  71.3703224  46.4981663  53.8003224  70.7023224  46.1161663
  54.1873224  71.1903224  47.7821663  56.2553224  69.3333224  48.1511663
  57.4403224  69.2343224  47.7861663  55.9333224  69.4413224  49.4411663
  54.9663224  69.5163224  49.7221663  56.9893224  69.4523224  50.4801663
  57.6963224  70.2473224  50.2451663  56.3623224  69.7003224  51.8571663
  57.0953224  69.4493224  52.6231663  55.5053224  69.0383224  51.9731663
  55.8853224  71.1163224  52.1291663  55.1753224  71.4153224  51.3581663
  55.1103224  71.1783224  53.4381663  54.7763224  72.2013224  53.6151663
  54.2433224  70.5203224  53.3791663  55.7543224  70.8603224  54.2571663
  57.0673224  72.0923224  52.1221663  56.7063224  73.1023224  52.3181663
  57.7803224  71.8053224  52.8951663  57.5563224  72.0643224  51.1481663
  57.7453224  68.1143224  50.5081663  58.9953224  68.1153224  50.5121663
  57.0083224  67.0283224  50.5371663  56.0063224  67.1513224  50.4921663
  57.5693224  65.6453224  50.6311663  56.7563224  64.9303224  50.7531663
  58.2003224  65.5683224  51.5171663  58.3993224  65.1853224  49.4451663
  59.4053224  64.4613224  49.6131663  57.9983224  65.6243224  48.2521663
  57.1733224  66.2033224  48.1901663  58.7173224  65.2903224  47.0411663
  59.1323224  64.2873224  47.1501663  57.7803224  65.3643224  45.8491663
  56.9493224  64.6763224  45.9971663  58.3093224  65.0493224  44.9501663
  57.2173224  66.6463224  45.5741663  56.4483224  66.8063224  46.1891663
  59.9053224  66.2493224  46.7681663  60.5453224  66.1263224  45.6951663
  60.1353224  67.1913224  47.6691663  59.5213224  67.2083224  48.4711663
  61.1993224  68.1813224  47.5691663  61.1413224  68.8403224  48.4361663
  62.5653224  67.5053224  47.6761663  63.3503224  68.2423224  47.5051663
  62.6563224  66.7443224  46.9021663  62.8663224  66.8093224  49.0581663
  63.9093224  66.4913224  49.0861663  62.2183224  65.9403224  49.1771663
  62.6453224  67.6913224  50.2921663  63.0353224  67.1863224  51.1751663
  61.5793224  67.8753224  50.4211663  63.3083224  68.9933224  50.2021663
  62.7813224  69.7633224  49.8111663  64.5343224  69.2293224  50.5921663
  65.2723224  68.2863224  51.1741663  64.8873224  67.3643224  51.3231663
  66.2163224  68.4933224  51.4661663  65.0083224  70.4703224  50.4201663
  64.4233224  71.1813224  50.0031663  65.9493224  70.6953224  50.7071663
  61.0603224  69.0513224  46.3001663  61.9863224  69.2573224  45.6081663
  59.8613224  69.5013224  46.0431663  59.1123224  69.2073224  46.6531663
  59.5663224  70.3823224  44.9471663  60.4113224  70.3733224  44.2581663
  58.3663224  69.8573224  44.1371663  58.0213224  70.6333224  43.4531663
  57.5443224  69.6283224  44.8131663  58.6603224  68.5783224  43.2951663
  58.9463224  67.7623224  43.9601663  59.4743224  68.7803224  42.5981663
  57.4193224  68.1423224  42.4881663  57.1273224  68.9433224  41.8091663
  56.5983224  67.9283224  43.1711663  57.6943224  66.9403224  41.6991663
  57.3103224  66.0643224  42.0281663  58.4103224  66.9283224  40.5881663
  58.8713224  68.0363224  40.0311663  58.6793224  68.9323224  40.4561663
  59.4153224  67.9863224  39.1821663  58.6903224  65.7793224  39.9781663
  58.3553224  64.9073224  40.3641663  59.2373224  65.7783224  39.1301663
  59.3553224  71.8453224  45.3411663  59.0963224  72.6733224  44.4661663
  59.4223224  72.1703224  46.6391663  59.6333224  71.4663224  47.3321663
  59.1853224  73.5823224  47.0811663  58.7443224  74.1343224  46.2521663
  58.1513224  73.6553224  48.2101663  58.6673224  73.5323224  49.1621663
  57.4493224  72.8313224  48.0921663  57.3323224  74.9683224  48.2821663
  58.0043224  75.8223224  48.1941663  56.2973224  75.0543224  47.1711663
  55.7463224  75.9903224  47.2591663  56.7983224  75.0193224  46.2031663
  55.6053224  74.2173224  47.2531663  56.5813224  75.0723224  49.6071663
  56.0143224  76.0033224  49.6321663  55.8973224  74.2293224  49.7051663
  57.2943224  75.0593224  50.4311663  60.5053224  74.2333224  47.4781663
  61.3163224  73.6693224  48.2011663  60.7143224  75.4483224  46.9281663
  59.9743224  75.8013224  46.3381663  61.9113224  76.2593224  47.1301663
  62.4723224  75.8453224  47.9691663  62.8013224  76.2003224  45.8711663
  63.6653224  76.8503224  46.0061663  62.2433224  76.5723224  45.0131663
  63.2943224  74.7703224  45.5641663  62.5413224  73.8653224  44.8141663
  61.6113224  74.1993224  44.3531663  62.9463224  72.5613224  44.6421663
  62.3093224  71.8603224  44.1041663  64.1493224  72.1503224  45.1481663
  64.5033224  71.1373224  44.9611663  64.9193224  73.0153224  45.8991663
  65.8573224  72.6703224  46.3351663  64.4893224  74.3323224  46.0971663
  65.0943224  75.0193224  46.6901663  61.4943224  77.7203224  47.4631663
  60.3383224  78.1153224  47.3131663  62.4583224  78.5133224  47.8721663
  63.3803224  78.1313224  48.0261663  62.2273224  79.9453224  48.1121663
  61.4703224  80.2953224  47.4111663  61.6573224  80.2023224  49.5151663
  60.7343224  79.6343224  49.6431663  61.4093224  81.2573224  49.6191663
  62.5933224  79.8303224  50.6411663  63.5293224  80.3783224  50.5321663
  62.8153224  78.7643224  50.5921663  61.9253224  80.1883224  52.2941663
  63.2983224  79.5633224  53.2771663  63.0773224  79.6953224  54.3361663
  63.4453224  78.5033224  53.0651663  64.2063224  80.1123224  53.0251663
  63.4513224  80.7613224  47.8851663  64.5823224  80.2873224  47.9381663
  63.1923224  82.0203224  47.5991663  62.2373224  82.2693224  47.3831663
  64.2473224  83.0863224  47.5811663  65.2213224  82.6103224  47.6851663
  64.2763224  83.8653224  46.2371663  63.3303224  84.3943224  46.1211663
  64.3693224  83.1493224  45.4221663  65.3963224  84.8893224  46.0771663
  65.4183224  85.5443224  46.9491663  66.7403224  84.1873224  45.9801663
  67.5313224  84.9293224  45.8661663  66.9143224  83.6083224  46.8871663
  66.7413224  83.5213224  45.1181663  65.1813224  85.7193224  44.8561663
  65.9913224  86.4433224  44.7611663  65.1653224  85.0753224  43.9761663
  64.2303224  86.2463224  44.9371663  63.8983224  83.9973224  48.7781663
  62.9383224  84.8083224  48.7221663  64.5903224  83.8023224  49.8721663
  65.4243224  83.2353224  49.8171663  64.1913224  84.3873224  51.1931663
  63.1663224  84.7513224  51.1151663  64.2203224  83.2923224  52.2731663
  65.2503224  82.9783224  52.4451663  63.6663224  82.4213224  51.9231663
  63.6263224  83.7423224  53.5951663  63.0213224  84.8373224  53.6451663
  63.7613224  83.0183224  54.6351663  65.0533224  85.5653224  51.6191663
  66.1583224  85.3573224  52.1541663  64.5523224  86.7953224  51.4281663
  63.6633224  86.8553224  50.9521663  65.2103224  88.0233224  51.8621663
  66.2263224  87.7803224  52.1731663  65.3193224  89.0253224  50.7071663
  65.5993224  90.0023224  51.0991663  64.3463224  89.1323224  50.2251663
  66.3533224  88.5873224  49.6611663  67.6953224  88.3693224  50.0301663
  68.0083224  88.5203224  51.0631663  68.6553224  87.9633224  49.1201663
  69.6833224  87.8053224  49.4461663  68.2953224  87.8153224  47.8051663
  69.2723224  87.4033224  46.9221663  68.8913224  87.3863224  46.0001663
  67.0083224  87.9913224  47.4431663  66.7393224  87.7973224  46.4041663
  66.0513224  88.4013224  48.3331663  65.0383224  88.5813224  47.9741663
  64.4773224  88.6363224  53.0811663  64.7923224  89.7803224  53.4941663
  63.5483224  87.9493224  53.7021663  63.3693224  86.9903224  53.4421663
  62.7463224  88.5663224  54.7941663  62.2993224  89.4933224  54.4371663
  61.6463224  87.5783224  55.2041663  62.1003224  86.6383224  55.5181663
  61.0103224  87.3643224  54.3441663  60.7743224  88.0643224  56.3141663
  59.5663224  88.6853224  56.0791663  59.0413224  89.0303224  57.2551663
  58.1103224  89.5763224  57.4011663  59.8303224  88.6043224  58.2181663
  59.6613224  88.7043224  59.2081663  60.9403224  87.9893224  57.6471663
  61.7753224  87.5353224  58.1811663  63.6283224  88.9003224  55.9981663
  63.6513224  90.0523224  56.4871663  64.3163224  87.8903224  56.5431663
  64.2853224  86.9663224  56.1371663  65.1333224  88.1183224  57.7521663
  64.5283224  88.6583224  58.4811663  65.5303224  86.8063224  58.4531663
  66.3443224  86.9993224  59.1521663  65.8963224  86.0943224  57.7131663
  64.3873224  86.1693224  59.2091663  63.2423224  86.6253224  59.1161663
  64.6703224  85.1803224  59.9581663  66.3693224  88.9623224  57.4311663
  66.8193224  89.7283224  58.3331663  66.9443224  88.8963224  56.2211663
  66.5493224  88.2573224  55.5461663  68.0753224  89.6803224  55.8551663
  68.8443224  89.5543224  56.6161663  68.6973224  89.1433224  54.4801663
  67.8953224  88.9593224  53.7661663  69.6653224  90.1913224  53.8981663
  70.0853224  89.8193224  52.9641663  69.1263224  91.1193224  53.7101663
  70.4703224  90.3773224  54.6091663  69.3423224  87.7643224  54.6781663
  68.7653224  87.1943224  55.4061663  70.3463224  87.8873224  55.0821663
  69.4393224  86.9263224  53.3661663  69.9043224  85.9643224  53.5821663
  68.4393224  86.7633224  52.9641663  70.0413224  87.4643224  52.6351663
  67.7373224  91.1943224  55.7891663  68.4923224  92.0633224  56.2891663
  66.6603224  91.5403224  55.0701663  66.0583224  90.8433224  54.6551663
  66.3453224  92.9653224  54.8791663  67.2813224  93.5243224  54.8411663
  65.6163224  93.2203224  53.5131663  65.0043224  94.1183224  53.5891663
  64.9483224  92.3873224  53.2961663  66.5703224  93.3903224  52.3271663
  67.1823224  92.2533224  51.7511663  66.9043224  91.2613224  52.1071663
  68.1373224  92.3303224  50.7351663  68.5983224  91.4203224  50.3511663
  68.4443224  93.4983224  50.2801663  69.1723224  93.5973224  49.4761663
  67.8913224  94.6773224  50.7641663  68.1733224  95.6323224  50.3221663
  66.9403224  94.6323224  51.8581663  66.5053224  95.5563224  52.2401663
  65.5253224  93.6273224  55.9841663  65.6673224  94.8603224  56.1991663
  64.6963224  92.8793224  56.7071663  64.6703224  91.8733224  56.6151663
  63.8013224  93.5293224  57.6571663  63.1083224  94.1613224  57.1021663
  62.9833224  92.4543224  58.4131663  63.6633224  91.7733224  58.9261663
  62.4083224  91.8663224  57.6991663  61.9993224  92.9473224  59.4571663
  62.5263224  93.5443224  60.2011663  61.5483224  92.0943224  59.9631663
  60.6853224  93.9573224  58.7151663  59.7853224  92.8183224  57.7801663
  58.9583224  93.3273224  57.2841663  60.4363224  92.3663224  57.0311663
  59.3913224  92.0403224  58.4351663  64.4913224  94.4793224  58.6681663
  63.9453224  95.5563224  58.9141663  65.6693224  94.1023224  59.2091663
  66.3283224  92.7653224  59.1471663  65.5973224  91.9433224  59.1461663
  67.0043224  92.6853224  58.2831663  67.1533224  92.7213224  60.4541663
  66.5723224  92.3953224  61.3291663  68.0353224  92.0663224  60.3951663
  67.5963224  94.2063224  60.6251663  67.8493224  94.4613224  61.6651663
  68.4693224  94.4663224  60.0091663  66.3533224  95.0263224  60.1621663
  65.6973224  95.2043224  61.0271663  66.7623224  96.3873224  59.5971663
  67.0473224  97.3203224  60.3741663  66.8163224  96.5033224  58.2621663
  66.5673224  95.6983224  57.7051663  67.2243224  97.7593224  57.5781663
  67.6503224  98.4343224  58.3201663  68.3793224  97.4483224  56.6071663
  68.4233224  98.2173224  55.8361663  68.1903224  96.4963224  56.1091663
  69.7243224  97.3743224  57.2871663  70.2783224  96.1463224  57.7871663
  69.7433224  95.2073224  57.6421663  71.4973224  96.1773224  58.4531663
  71.9313224  95.2553224  58.8381663  72.2043224  97.3803224  58.5491663
  73.4613224  97.4903224  59.1301663  73.6863224  98.4553224  59.2281663
  71.7063224  98.5353224  58.0651663  72.2633224  99.4693224  58.1411663
  70.4543224  98.5193224  57.4591663  70.0583224  99.4753224  57.1151663
  66.0783224  98.5103224  56.9331663  66.3013224  99.6043224  56.3791663
  64.8903224  97.9353224  56.8511663  64.7193224  97.0643224  57.3321663
  63.8073224  98.5453224  56.0671663  64.1473224  98.6603224  55.0371663
  62.5693224  97.6213224  55.9571663  62.2823224  97.2933224  56.9561663
  61.3263224  98.3843224  55.4071663  60.4783224  97.7013224  55.3451663
  61.0793224  99.2083224  56.0761663  61.5493224  98.7753224  54.4151663
  62.8193224  96.3743224  55.1101663  61.9123224  95.7713224  55.0751663
  63.0973224  96.6713224  54.0991663  63.6263224  95.7903224  55.5521663
  63.4183224  99.9383224  56.6001663  63.2493224 100.8983224  55.8411663
  63.3263224 100.0783224  57.9341663  63.5523224  99.3123224  58.5531663
  62.8943224 101.3523224  58.5061663  61.9123224 101.5983224  58.1001663
  62.7513224 101.2463224  60.0331663  63.6873224 100.8893224  60.4621663
  61.9803224 100.5163224  60.2761663  62.4063224 102.5123224  60.6561663
  61.5223224 102.9283224  60.1711663  63.2393224 103.2083224  60.5511663
  62.1153224 102.2613224  62.1541663  61.7153224 103.1693224  62.6041663
  63.0373224 101.9813224  62.6621663  61.1383224 101.1833224  62.3471663
  61.4913224 100.2403224  62.4411663  59.8183224 101.3563224  62.4071663
  59.3083224 102.5883224  62.3021663  59.9233224 103.3803224  62.1781663
  58.3093224 102.7263224  62.3471663  58.9943224 100.3183224  62.5811663
  59.3703224  99.3843224  62.6691663  57.9973224 100.4673224  62.6241663
  63.8633224 102.4943224  58.1461663  63.4663224 103.5563224  57.6811663
  65.1303224 102.2613224  58.3621663  65.4403224 101.3833224  58.7541663
  66.1223224 103.2843224  58.0331663  65.8163224 104.2233224  58.4941663
  67.4523224 102.9563224  58.6661663  67.3313224 102.8763224  59.7461663
  68.1563224 103.7663224  58.4751663  68.1233224 101.7353224  58.2461663
  68.6333224 101.9203224  57.3011663  67.3793224 100.9483224  58.1221663
  69.1373224 101.2903224  59.2681663  68.8293224 100.5383224  60.1931663
  70.3663224 101.7883224  59.1211663  71.0893224 101.5343224  59.7651663
  70.5653224 102.4153224  58.3681663  66.2663224 103.5833224  56.5401663
  66.4543224 104.7463224  56.1431663  66.2143224 102.5603224  55.6941663
  66.1823224 101.6083224  56.0301663  66.2023224 102.8073224  54.2531663
  67.0953224 103.3733224  53.9921663  66.2623224 101.4473224  53.4441663
  65.5203224 100.7553224  53.8401663  65.9583224 101.7043224  51.8961663
  66.0043224 100.7593224  51.3551663  64.9643224 102.1363224  51.7881663
  66.6993224 102.3923224  51.4891663  67.6143224 100.7933224  53.6341663
  67.8393224 100.7243224  54.6991663  68.3853224 101.4133224  53.1781663
  67.7523224  99.4003224  53.0541663  68.7573224  99.0243224  53.2461663
  67.0223224  98.7383224  53.5201663  67.5773224  99.4353224  51.9801663
  64.9833224 103.6273224  53.8401663  65.1083224 104.6043224  53.0551663
  63.8173224 103.2723224  54.3361663  63.7793224 102.5233224  55.0131663
  62.5933224 103.9233224  53.9391663  62.5643224 103.9713224  52.8491663
  61.3523224 103.1233224  54.2861663  60.4693224 103.7523224  54.1701663
  61.3983224 102.8143224  55.3311663  61.1833224 101.8813224  53.4181663
  62.0573224 101.5943224  52.5931663  60.1213224 101.1313224  53.6001663
  59.9873224 100.3113224  53.0431663  59.4473224 101.3803224  54.2951663
  62.5093224 105.3873224  54.4351663  61.6863224 106.1553224  53.9051663
  63.3223224 105.7513224  55.4041663  63.9123224 105.0763224  55.8701663
  63.3803224 107.1973224  55.8321663  62.3623224 107.5843224  55.8811663
  64.0623224 107.3123224  57.1921663  64.3143224 108.3553224  57.3861663
  64.9943224 106.7473224  57.1811663  63.2913224 106.8273224  58.4331663
  63.9203224 106.9603224  59.3131663  63.0443224 105.7733224  58.3061663
  61.9723224 107.5743224  58.6991663  61.9573224 108.7953224  58.9331663
  60.8673224 106.8333224  58.7191663  59.9793224 107.2633224  58.8871663
  60.9233224 105.8463224  58.5661663  64.1513224 108.0593224  54.8571663
  64.1433224 109.3103224  54.9711663  64.9333224 107.4773224  53.9581663
  65.0373224 106.4723224  53.9601663  65.6483224 108.2613224  52.9641663
  66.1493224 109.0863224  53.4691663  66.6903224 107.3893224  52.2541663
  67.2203224 108.0043224  51.5271663  66.1723224 106.5953224  51.7181663
  67.7333224 106.7353224  53.1571663  67.2363224 106.0723224  53.8661663
  68.5963224 105.7503224  52.3371663  69.3383224 105.2873224  52.9881663
  67.9583224 104.9773224  51.9081663  69.1023224 106.2893224  51.5371663
  68.5493224 107.7933224  53.9681663  69.2793224 107.2843224  54.5981663
  69.0673224 108.4603224  53.2781663  67.8713224 108.3733224  54.5941663
  64.6823224 108.8353224  51.9331663  63.6783224 108.2373224  51.5691663
  65.0203224 110.0133224  51.4131663  65.7803224 110.5473224  51.8091663
  64.3053224 110.5443224  50.2751663  63.2373224 110.5283224  50.4991663
  64.6783224 112.0323224  50.0221663  64.1143224 112.4093224  49.1691663
  65.7373224 112.1043224  49.7721663  64.3983224 112.9273224  51.2261663
  65.2683224 113.7223224  51.6151663  63.1853224 112.8223224  51.8151663
  62.9633224 113.3913224  52.6071663  62.5113224 112.1763224  51.4591663
  64.5583224 109.6393224  49.0551663  65.6403224 109.0983224  48.7971663
  63.5483224 109.4583224  48.2801663  62.6333224 109.8573224  48.4361663
  63.7703224 108.6023224  47.0871663  62.8083224 108.4273224  46.6021663
  64.6113224 109.3263224  45.9971663  64.7003224 108.6853224  45.1211663
  65.6173224 109.5063224  46.3741663  63.9803224 110.5673224  45.6451663
  63.8403224 111.1053224  46.4721663  64.3423224 107.1663224  47.2851663
  64.8203224 106.5653224  46.3371663  64.2493224 106.5603224  48.4711663
  64.1223224 107.1193224  49.3031663  64.3283224 105.0663224  48.5991663
  64.3483224 104.6413224  47.5961663  65.5743224 104.6263224  49.3821663
  65.5943224 103.5383224  49.4521663  66.4693224 104.9733224  48.8661663
  65.5443224 105.0543224  50.3831663  63.0903224 104.5533224  49.3391663
  62.7343224 105.0373224  50.4311663  62.4803224 103.4943224  48.8091663
  62.7163224 103.2343224  47.8621663  61.4773224 102.6903224  49.5511663
  61.6863224 102.7753224  50.6181663  60.0513224 103.1553224  49.2381663
  59.3373224 102.4903224  49.7241663  59.8763224 103.0943224  48.1641663
  59.7303224 104.5733224  49.6761663  58.7713224 104.8753224  49.2571663
  60.4993224 105.2523224  49.3041663  59.6523224 104.7353224  51.2291663
  60.5493224 104.3153224  51.6841663  58.7853224 104.1923224  51.6091663
  59.5323224 106.2533224  51.5931663  59.2653224 106.3553224  52.6451663
  58.7443224 106.7093224  50.9961663  60.8083224 106.9753224  51.3451663
  60.6973224 107.9493224  51.5901663  61.5413224 106.5683224  51.9091663
  61.0543224 106.9003224  50.3681663  61.5953224 101.2243224  49.1331663
  61.6183224 100.9333224  47.9481663  61.6753224 100.3123224  50.1151663
  61.6613224 100.6373224  51.0711663  61.7823224  98.8543224  49.8471663
  61.4913224  98.6703224  48.8121663  63.2613224  98.3843224  50.0941663
  63.9433224  99.0153224  49.5241663  63.6673224  98.4583224  51.5661663
  64.6983224  98.1223224  51.6761663  63.5813224  99.4873224  51.9161663
  63.0123224  97.8183224  52.1561663  63.5053224  97.0573224  49.5881663
  62.9733224  96.3853224  50.1101663  60.8453224  98.0963224  50.7721663
  60.2573224  98.6243224  51.7291663  60.7063224  96.8153224  50.4301663
  61.0493224  96.5743224  49.5111663  60.1183224  95.7823224  51.2571663
  59.7653224  96.2393224  52.1821663  58.9933224  95.0583224  50.5271663
  58.6403224  94.2263224  51.1361663  59.3733224  94.6423224  49.5931663
  57.7933224  95.8963224  50.1831663  56.7493224  96.0713224  51.0781663
  56.8103224  95.6393224  52.0771663  55.5953224  96.7943224  50.7461663
  54.7953224  96.9103224  51.4771663  55.4823224  97.3723224  49.4461663
  54.3443224  98.0623224  49.1501663  53.6173224  97.4193224  48.9071663
  56.5393224  97.2353224  48.5561663  56.4843224  97.7153224  47.5791663
  57.6563224  96.4953224  48.9011663  58.4443224  96.3773224  48.1571663
  61.1373224  94.7453224  51.6091663  62.1333224  94.5633224  50.8581663
  60.9123224  93.9443224  52.6191663  60.1533224  94.1823224  53.2421663
  61.7173224  92.7113224  52.8881663  62.7013224  92.8443224  52.4381663
  61.8843224  92.4673224  54.4261663  62.4733224  91.5643224  54.5891663
  62.3933224  93.3193224  54.8761663  60.9033224  92.3473224  54.8841663
  60.9363224  91.5653224  52.2201663  59.8313224  91.2463224  52.6361663
  61.4713224  90.9843224  51.1441663  62.4353224  91.1863224  50.9231663
  60.7123224  90.0663224  50.2751663  59.6483224  90.2083224  50.4671663
  60.8703224  90.4143224  48.7751663  60.1473224  89.8443224  48.1911663
  60.6503224  91.9093224  48.4501663  60.7783224  92.0713224  47.3801663
  59.6423224  92.2013224  48.7441663  61.3753224  92.5103224  48.9971663
  62.1693224  90.0093224  48.3191663  62.8753224  90.6243224  48.6861663
  60.9933224  88.5973224  50.5201663  62.1003224  88.1913224  50.8981663
  59.9843224  87.8003224  50.2071663  59.0793224  88.2103224  50.0251663
  60.1413224  86.3303224  50.1161663  61.2043224  86.1003224  50.0391663
  59.5473224  85.6863224  51.3651663  58.4623224  85.7943224  51.3501663
  59.9153224  86.2033224  52.2501663  59.8193224  84.3033224  51.5541663
  60.8973224  84.1493224  51.6171663  59.4203224  83.7353224  50.7131663
  59.0713224  83.9803224  52.9251663  58.8203224  82.9213224  52.9621663
  58.1583224  84.5713224  52.9891663  59.7863224  84.2463224  54.1661663
  60.7933224  84.1573224  54.1571663  59.2223224  84.6053224  55.3421663
  57.9703224  85.0193224  55.4261663  57.4003224  85.0763224  54.5941663
  57.5833224  85.2793224  56.3221663  59.9523224  84.6463224  56.4221663
  60.9343224  84.4103224  56.3781663  59.5373224  84.9133224  57.3021663
  59.4003224  85.8533224  48.8881663  58.2283224  86.2303224  48.7001663
  60.0243224  85.0363224  48.0621663  60.9843224  84.8223224  48.2911663
  59.4143224  84.4273224  46.8451663  58.4083224  84.8293224  46.7241663
  60.2303224  84.7463224  45.5541663  61.2133224  84.2813224  45.6211663
  59.5473224  84.2323224  44.2821663  60.1583224  84.4813224  43.4151663
  59.4293224  83.1503224  44.3441663  58.5683224  84.6993224  44.1811663
  60.3683224  86.1793224  45.4431663  60.6703224  86.5653224  46.3191663
  59.3173224  82.8863224  47.0101663  60.3293224  82.2683224  47.3311663
  58.1403224  82.3103224  46.7801663  57.3473224  82.9023224  46.5791663
  57.9573224  80.8543224  46.8081663  58.7593224  80.4163224  47.4021663
  56.6263224  80.4783224  47.5111663  55.7873224  80.8653224  46.9331663
  56.5093224  78.8943224  47.6181663  55.5743224  78.6313224  48.1121663
  56.5263224  78.4603224  46.6191663  57.3473224  78.5053224  48.1971663
  56.4103224  81.2113224  48.8341663  55.4703224  80.8863224  49.2811663
  56.3293224  82.2813224  48.6481663  57.5073224  80.9893224  49.8381663
  57.2823224  81.5413224  50.7511663  57.5823224  79.9253224  50.0661663
  58.4533224  81.3393224  49.4271663  58.0233224  80.3153224  45.3841663
  57.3923224  80.9063224  44.4731663  58.7893224  79.2493224  45.1851663
  59.2363224  78.8653224  46.0051663  59.0243224  78.5983224  43.8511663
  58.4273224  79.1183224  43.1031663  60.4923224  78.6683224  43.4501663
  60.6163224  78.1583224  42.4951663  61.0823224  78.1413224  44.1981663
  60.9773224  80.1213224  43.3321663  60.5113224  80.7253224  44.1111663
  61.9803224  80.6313224  44.2381663  62.1913224  81.6733224  43.9981663
  61.6143224  80.5633224  45.2621663  62.8923224  80.0443224  44.1381663
  60.7483224  80.8543224  42.1681663  61.1653224  81.8553224  42.2811663
  61.2253224  80.3553224  41.3241663  59.6753224  80.9253224  41.9881663
  58.6033224  77.1363224  43.9421663  58.8113224  76.4583224  44.9321663
  58.0543224  76.6423224  42.8471663  57.9023224  77.2823224  42.0811663
  57.6603224  75.2303224  42.6921663  57.9043224  74.6993224  43.6141663
  56.1603224  75.1003224  42.4631663  55.8713224  75.6973224  41.5991663
  55.6253224  75.4943224  43.3261663  55.6613224  73.6863224  42.2261663
  55.6613224  72.7883224  43.2681663  56.0143224  73.1103224  44.2481663
  55.2123224  71.4973224  43.0461663  55.1863224  70.7813224  43.8671663
  54.7923224  71.0833224  41.8061663  54.4553224  70.0583224  41.6581663
  54.8013224  71.9523224  40.7731663  54.4823224  71.6253224  39.7841663
  55.2173224  73.2473224  40.9881663  55.2303224  73.9593224  40.1621663
  58.4483224  74.6033224  41.5141663  58.4993224  75.2023224  40.4241663
  59.0503224  73.4513224  41.7421663  59.0223224  73.0923224  42.6861663
  59.7543224  72.6723224  40.6931663  60.2233224  73.3703224  40.0011663
  60.8223224  71.8003224  41.3281663  60.3433224  71.1223224  42.0341663
  61.5093224  72.4393224  41.8801663  61.6553224  70.9503224  40.3701663
  60.9923224  70.3743224  39.7241663  62.4533224  71.8363224  39.3681663
  63.0343224  71.1993224  38.7021663  61.7593224  72.4363224  38.7801663
  63.1253224  72.4933224  39.9191663  62.5443224  69.9903224  41.1881663
  63.1413224  69.3803224  40.5101663  63.2063224  70.5683224  41.8341663
  61.9153224  69.3433224  41.7991663  58.7013224  71.8023224  39.9521663
  58.1843224  70.7893224  40.5221663  58.3653224  72.2183224  38.7291663
  58.8203224  73.0483224  38.3761663  57.3843224  71.5363224  37.8931663
  56.4633224  71.4213224  38.4651663  57.0623224  72.3733224  36.6321663
  56.2013224  71.9433224  36.1201663  57.9053224  72.3333224  35.9441663
  56.7583224  73.8033224  36.8591663  57.6643224  74.3223224  37.1751663
  55.9983224  73.8953224  37.6351663  56.2303224  74.5373224  35.6311663
  56.7493224  74.1793224  34.7421663  56.4023224  75.6073224  35.7451663
  54.8053224  74.2823224  35.5011663  54.3683224  73.6923224  36.1961663
  54.0333224  74.7603224  34.5451663  54.5673224  75.3963224  33.4971663
  55.5683224  75.5133224  33.4341663  53.9693224  75.7593224  32.7691663
  52.7643224  74.5403224  34.5821663  52.3663224  74.0043224  35.3411663
  52.1683224  74.9033224  33.8531663  57.8853224  70.1383224  37.4841663
  59.0813224  69.8533224  37.4681663  56.9563224  69.2853224  37.0831663
  55.9813224  69.5473224  37.1071663  57.3273224  67.9473224  36.5981663
  57.8733224  67.4323224  37.3891663  56.1053224  67.1073224  36.2601663
  56.4193224  66.1973224  35.7491663  55.4613224  67.6603224  35.5761663
  55.2703224  66.7103224  37.5301663  54.8573224  67.6133224  37.9771663
  55.9353224  66.2483224  38.2591663  54.1413224  65.7493224  37.2321663
  53.8923224  65.5043224  36.0231663  53.5453224  65.1963224  38.1841663
  58.2503224  68.0213224  35.3601663  59.0883224  67.1403224  35.2091663
  58.1633224  69.0903224  34.5521663  57.4543224  69.7823224  34.7481663
  59.0703224  69.2893224  33.3841663  59.1643224  68.3413224  32.8531663
  58.4563224  70.2173224  32.3301663  57.4293224  69.9113224  32.1301663
  59.0123224  70.1263224  31.3971663  58.4293224  71.6923224  32.7041663
  58.9873224  72.1403224  33.7181663  57.7753224  72.4703224  31.9571663
  60.4793224  69.7253224  33.7891663  61.3443224  69.8643224  32.9261663
  60.7543224  69.9293224  35.0751663  59.9823224  69.8443224  35.7201663
  62.0733224  70.2603224  35.5891663  62.8333224  69.7563224  34.9931663
  62.1693224  69.8913224  36.6101663  62.4363224  71.7333224  35.6151663
  63.5213224  72.0463224  36.0491663  61.5083224  72.6033224  35.2311663
  60.6493224  72.2443224  34.8401663  61.6913224  74.0963224  35.3571663
  62.7593224  74.3133224  35.3741663  61.0713224  74.8823224  34.1431663
  61.2913224  75.9443224  34.2471663  61.6283224  74.4053224  32.7991663
  61.1713224  74.9773224  31.9921663  62.7083224  74.5503224  32.7811663
  61.4023224  73.3483224  32.6671663  59.6653224  74.7023224  34.1311663
  59.4303224  73.7353224  33.9691663  61.0653224  74.6073224  36.6581663
  60.1463224  73.9773224  37.2201663  61.5323224  75.7523224  37.1331663
  62.3263224  76.1733224  36.6711663  60.9443224  76.4233224  38.2921663
  60.4993224  75.6683224  38.9391663  62.0183224  77.2133224  39.0831663
  61.5173224  77.8323224  39.8271663  62.5463224  77.8683224  38.3921663
  63.0833224  76.4123224  39.8271663  63.5303224  75.6833224  39.1501663
  64.1583224  77.3383224  40.3011663  64.9203224  76.7693224  40.8331663
  64.6113224  77.8383224  39.4451663  63.7283224  78.0823224  40.9711663
  62.4853224  75.6713224  41.0101663  63.2673224  75.1083224  41.5201663
  62.0433224  76.3883224  41.7021663  61.7153224  74.9843224  40.6581663
  59.8393224  77.4063224  37.8951663  59.9233224  78.0693224  36.9101663
  58.8073224  77.4893224  38.7041663  58.6913224  76.8253224  39.4561663
  57.8253224  78.5303224  38.5291663  58.2003224  79.2383224  37.7891663
  56.5373224  78.0433224  37.9071663  56.7623224  77.4563224  37.0161663
  55.9383224  78.8983224  37.5931663  55.7293224  77.2633224  38.7031663
  55.6823224  77.6913224  39.7041663  56.1503224  76.2593224  38.7761663
  54.3573224  77.2363224  38.0531663  54.4263224  76.7563224  37.0771663
  54.0013224  78.2573224  37.9121663  53.4103224  76.5203224  38.8561663
  53.4513224  76.8873224  39.8811663  53.6663224  75.4613224  38.8631663
  51.9213224  76.6143224  38.4121663  51.3463224  76.0763224  39.0451663
  51.6253224  77.5803224  38.4271663  51.8253224  76.2473224  37.4761663
  57.5743224  79.3253224  39.8151663  57.4913224  78.7263224  40.8441663
  57.4463224  80.6513224  39.7111663  57.5043224  81.5023224  38.4771663
  58.4893224  81.4573224  37.9901663  56.7073224  81.2403224  37.7661663
  57.2653224  82.9073224  39.0121663  57.9183224  83.6433224  38.5201663
  56.2303224  83.2353224  38.8371663  57.5503224  82.8623224  40.4731663
  58.6103224  83.0493224  40.7011663  56.9643224  83.6023224  41.0391663
  57.1623224  81.4393224  40.9091663  57.7813224  81.0703224  41.7401663
  55.6943224  81.3533224  41.2221663  54.8593224  81.4643224  40.3011663
  55.3173224  81.1433224  42.4951663  56.0273224  81.1313224  43.2131663
  53.9143224  80.9313224  42.8731663  53.3013224  80.9883224  41.9731663
  53.6333224  79.4723224  43.3781663  52.5703224  79.3723224  43.5971663
  53.9693224  78.4943224  42.2151663  53.7833224  77.4693224  42.5361663
  53.3413224  78.7233224  41.3541663  55.0183224  78.6023224  41.9401663
  54.4103224  79.1353224  44.6341663  54.1793224  78.1163224  44.9421663
  55.4783224  79.2223224  44.4351663  54.1323224  79.8263224  45.4301663
  53.3533224  81.9893224  43.8621663  52.1543224  82.1033224  44.0441663
  54.2153224  82.7673224  44.5311663  55.2033224  82.6143224  44.3891663
  53.7733224  83.8433224  45.4711663  53.0123224  84.4403224  44.9681663
  53.1693224  83.2653224  46.7761663  52.8623224  84.0833224  47.4281663
  52.3033224  82.6493224  46.5341663  53.9163224  82.6573224  47.2841663
  54.9543224  84.7073224  45.8091663  56.0973224  84.2313224  45.8951663
  54.6863224  86.0083224  46.0601663  53.7583224  86.3353224  45.8301663
  55.6623224  86.9583224  46.6421663  56.5473224  86.4013224  46.9481663
  56.1083224  88.0103224  45.5801663  55.2293224  88.4273224  45.0901663
  56.8993224  89.1523224  46.2641663  57.2073224  89.8813224  45.5151663
  56.2673224  89.6393224  47.0051663  57.7823224  88.7413224  46.7541663
  56.9243224  87.3483224  44.4851663  56.4213224  86.4383224  44.1561663
  57.8963224  87.0573224  44.8811663  57.1673224  88.2673224  43.2041663
  57.7583224  87.7193224  42.4701663  56.2073224  88.5423224  42.7661663
  57.7033224  89.1683224  43.4991663  55.0623224  87.6433224  47.8541663
  53.9453224  88.1763224  47.7671663  55.7793224  87.6313224  48.9681663
  56.6303224  87.0873224  48.9731663  55.3883224  88.3743224  50.1931663
  54.3433224  88.6703224  50.0991663  55.4433224  87.4583224  51.4221663
  56.4753224  87.1583224  51.6071663  54.8693224  86.5523224  51.2271663
  54.9043224  88.0623224  52.7361663  53.9653224  88.5743224  52.5301663
  55.6163224  88.8013224  53.1031663  54.6733224  86.9993224  53.8401663
  55.3173224  85.9143224  53.8711663  53.8463224  87.3283224  54.7531663
  56.2663224  89.6013224  50.3141663  57.5053224  89.5063224  50.2401663
  55.6093224  90.7663224  50.4051663  54.6023224  90.6843224  50.4051663
  56.2163224  92.0953224  50.5001663  57.2783224  92.0073224  50.2751663
  55.6063224  93.0423224  49.4791663  56.0923224  94.0133224  49.5711663
  54.5493224  93.1653224  49.7081663  55.6843224  92.6613224  48.0001663
  55.1833224  91.7053224  47.8431663  54.8993224  93.6363224  47.1111663
  54.9823224  93.3263224  46.0691663  53.8503224  93.6343224  47.4071663
  55.3063224  94.6403224  47.2241663  57.1243224  92.5343224  47.5471663
  57.1513224  92.2613224  46.4911663  57.6363224  93.4863224  47.6891663
  57.6233224  91.7633224  48.1341663  56.0263224  92.6233224  51.9411663
  54.9383224  93.0983224  52.2801663  57.0313224  92.4823224  52.7651663
  57.9303224  92.1843224  52.4141663  56.8733224  92.7563224  54.2301663
  55.8083224  92.7913224  54.4631663  57.4723224  91.6043224  55.0541663
  57.3383224  91.8083224  56.1151663  58.5433224  91.5413224  54.8651663
  56.8623224  90.3133224  54.7431663  57.4913224  89.5973224  55.0181663
  57.4713224  94.0783224  54.6661663  58.5653224  94.4743224  54.2121663
  56.8153224  94.7343224  55.6531663  55.9333224  94.3263224  55.9281663
  57.2743224  95.9363224  56.3181663  58.2963224  96.1393224  55.9991663
  56.3723224  97.1353224  55.9501663  56.7123224  98.0093224  56.5051663
  55.3523224  96.9103224  56.2571663  56.3143224  97.5433224  54.4551663
  56.0533224  96.6743224  53.8501663  55.1513224  98.5453224  54.2561663
  55.1003224  98.8403224  53.2081663  54.2123224  98.0743224  54.5461663
  55.3213224  99.4273224  54.8721663  57.7093224  98.0903224  53.9981663
  57.6623224  98.3743224  52.9461663  57.9733224  98.9613224  54.5981663
  58.4653224  97.3163224  54.1311663  57.2683224  95.7493224  57.8481663
  56.4193224  95.0133224  58.3571663  58.2043224  96.4243224  58.5231663
  59.2953224  97.2663224  58.0121663  60.1263224  96.6803224  57.5921663
  58.9433224  98.0153224  57.2871663  59.7603224  97.9693224  59.2861663
  60.8313224  98.2203224  59.2551663  59.2183224  98.9103224  59.4631663
  59.4923224  97.0133224  60.3791663  60.2763224  96.2463224  60.4681663
  59.4123224  97.5063224  61.3591663  58.1873224  96.3723224  60.0201663
  58.0793224  95.3273224  60.3441663  57.0743224  97.2423224  60.5221663
  56.6383224  98.2063224  59.8561663  56.5713224  96.8943224  61.6961663
  56.9403224  96.0853224  62.1751663  55.4873224  97.6603224  62.3191663
  55.4123224  98.6373224  61.8431663  54.1463224  96.9663224  62.0441663
  53.3483224  97.5013224  62.5581663  54.1723224  95.9523224  62.4451663
  53.8043224  96.8913224  60.5751663  53.9553224  95.7483224  59.8081663
  53.5983224  96.0043224  58.5521663  53.5913224  95.2863224  57.7321663
  53.2543224  97.2813224  58.4771663  52.9523224  97.7643224  57.6431663
  53.3713224  97.8533224  59.7191663  53.1593224  98.8913224  59.9761663
  55.8233224  97.8323224  63.8011663  56.2873224  96.9093224  64.4881663
  55.6413224  99.0463224  64.2911663  55.3763224  99.8153224  63.6921663
  55.8243224  99.2873224  65.7191663  55.6343224  98.3563224  66.2541663
  57.2603224  99.6893224  66.0381663  57.9423224  98.9193224  65.6781663
  57.3873224  99.7593224  67.1181663  57.6143224 100.9333224  65.4491663
  57.1013224 101.0563224  64.6011663  54.8233224 100.3593224  66.1111663
  54.3903224 101.1623224  65.2541663  54.5563224 100.4133224  67.4231663
  55.1213224  99.8013224  67.9951663  53.5343224 101.2703224  68.0731663
  52.5833224 100.7383224  68.0521663  53.9333224 101.5233224  69.5521663
  53.1823224 102.1533224  70.0291663  53.9973224 100.5713224  70.0801663
  54.9003224 102.0223224  69.5871663  53.2593224 102.6083224  67.3921663
  52.1683224 102.8483224  66.8501663  54.2593224 103.4783224  67.4201663
  55.1803224 103.1823224  67.7111663  54.0503224 104.8623224  67.0351663
  54.6793224 105.5083224  67.6461663  53.0153224 105.1423224  67.2321663
  54.3273224 105.2303224  65.5961663  54.4453224 106.4183224  65.2941663
  54.4013224 104.2343224  64.7071663  54.1623224 103.3043224  65.0211663
  54.8193224 104.4393224  63.2791663  55.8643224 104.7503224  63.2661663
  54.6223224 103.1543224  62.4511663  54.5233224 103.4123224  61.3961663
  53.6973224 102.6633224  62.7561663  55.7593224 102.1783224  62.6041663
  56.8063224 102.5953224  63.1501663  55.5923224 100.9983224  62.1751663
  54.0083224 105.5143224  62.5851663  52.7823224 105.5443224  62.7311663
  54.6713224 106.3683224  61.8091663  55.6713224 106.2923224  61.6881663
  53.9523224 107.4313224  61.1211663  53.1373224 107.7673224  61.7611663
  54.8703224 108.6083224  60.8181663  54.3093224 109.3493224  60.2481663
  55.6953224 108.2553224  60.2011663  55.5253224 109.3883224  61.9771663
  55.7653224 108.7013224  62.7891663  56.9053224 110.0073224  61.5781663
  57.3233224 110.5453224  62.4291663  57.5893224 109.2113224  61.2821663
  56.7673224 110.6973224  60.7461663  54.5813224 110.4483224  62.4901663
  55.0543224 110.9923224  63.3081663  54.3413224 111.1423224  61.6841663
  53.6653224 109.9773224  62.8481663  53.3563224 106.9133224  59.7951663
  52.3533224 107.4413224  59.3391663  53.9493224 105.8793224  59.1881663
  54.7523224 105.4453224  59.6201663  53.4563224 105.3563224  57.8981663
  53.1243224 106.1973224  57.2881663  54.6103224 104.6143224  57.2011663
  55.0613224 103.9083224  57.8971663  55.3813224 105.3283224  56.9141663
  54.1873224 103.9013224  56.0321663  54.7533224 103.0883224  55.9241663
  52.2723224 104.4143224  58.0331663  52.2623224 103.5753224  58.9181663
  51.2803224 104.5833224  57.1661663  51.3263224 105.3823224  56.5501663
  50.1423224 103.6743224  57.0681663  49.9883224 103.2173224  58.0461663
  48.8363224 104.4663224  56.7181663  47.9983224 103.7733224  56.6491663
  48.6363224 105.2013224  57.4981663  48.9653224 104.9763224  55.7641663
  50.3303224 102.4893224  56.0881663  49.4443224 101.6613224  55.9721663
  51.4843224 102.3803224  55.4181663  52.2053224 103.0743224  55.5551663
  51.7293224 101.2563224  54.4721663  50.9153224 101.2403224  53.7471663
  53.0393224 101.4653224  53.7551663  53.2123224 100.6393224  53.0651663
  53.0043224 102.4023224  53.1991663  53.8493224 101.5053224  54.4821663
  51.7423224  99.9243224  55.2091663  52.2953224  99.8013224  56.3151663
  51.2013224  98.8823224  54.5621663  50.8533224  98.9993224  53.6211663
  51.1063224  97.5753224  55.1961663  51.5893224  97.6283224  56.1721663
  49.6533224  97.1773224  55.4441663  49.6313224  96.1963224  55.9181663
  49.0653224  98.1943224  56.4661663  48.0243224  97.9433224  56.6711663
  49.6373224  98.1513224  57.3921663  49.1203224  99.2003224  56.0511663
  48.8913224  97.1163224  54.1481663  47.8583224  96.8303224  54.3461663
  48.9113224  98.0943224  53.6681663  49.3513224  96.3793224  53.4901663
  51.8173224  96.5083224  54.3411663  52.0263224  96.6893224  53.1631663
  52.2223224  95.4273224  54.9901663  52.2013224  95.4193224  56.0001663
  52.7053224  94.2283224  54.2701663  53.5513224  94.5173224  53.6451663
  53.1093224  93.1853224  55.2701663  53.4413224  92.2893224  54.7471663
  52.2473224  92.9093224  55.8761663  54.1603224  93.6133224  56.1471663
  54.4103224  92.8583224  56.7471663  51.6273224  93.6543224  53.3851663
  50.4213224  93.7653224  53.6461663  52.0513224  93.0133224  52.3021663
  53.0153224  93.0323224  52.0021663  51.0633224  92.2423224  51.5101663
  50.3533224  91.7813224  52.1971663  50.2823224  93.1383224  50.6791663
  49.8003224  93.8883224  51.3061663  49.4943224  92.5753224  50.1781663
  51.1223224  93.7903224  49.6931663  51.4143224  93.0593224  48.9391663
  52.0073224  94.1873224  50.1901663  50.3513224  94.9593224  49.0041663
  50.5233224  96.1543224  49.3281663  49.4503224  94.5943224  48.0781663
  48.9183224  95.2913224  47.5951663  49.3103224  93.6263224  47.8701663
  51.6253224  91.1073224  50.6901663  52.8383224  91.0213224  50.5371663
  50.7533224  90.1973224  50.2981663  49.7993224  90.3363224  50.6011663
  51.0803224  89.0213224  49.4661663  52.1643224  88.9093224  49.4371663
  50.5153224  87.7293224  50.0721663  49.4283224  87.8043224  50.1151663
  50.7993224  86.5333224  49.1111663  50.3973224  85.6163224  49.5431663
  50.3243224  86.7193224  48.1481663  51.8753224  86.4263224  48.9711663
  51.0583224  87.4973224  51.5031663  50.6393224  86.5753224  51.9061663
  52.1453224  87.4193224  51.4721663  50.7723224  88.3343224  52.1411663
  50.5203224  89.2673224  48.0981663  49.3673224  89.6643224  47.9161663
  51.3473224  89.0173224  47.0731663  52.2853224  88.7043224  47.2791663
  50.9413224  89.1803224  45.6761663  49.8893224  89.4673224  45.6531663
  51.7773224  90.3163224  44.9451663  52.8003224  89.9683224  44.8041663
  51.1973224  90.6393224  43.5251663  51.7963224  91.4213224  43.0561663
  51.2263224  89.7413224  42.9081663  50.1673224  90.9813224  43.6221663
  51.7863224  91.6023224  45.7991663  52.3623224  92.3733224  45.2891663
  50.7633224  91.9493224  45.9451663  52.2393224  91.3923224  46.7681663
  51.1413224  87.8243224  44.9341663  52.1763224  87.1623224  45.1181663
  50.1233224  87.4213224  44.1651663  49.3123224  88.0213224  44.1261663
  50.1283224  86.1753224  43.3921663  50.9953224  85.5873224  43.6901663
  48.8723224  85.3643224  43.7081663  48.9203224  84.4223224  43.1621663
  48.0033224  85.9193224  43.3581663  48.6523224  85.0343224  45.1961663
  48.6043224  85.9593224  45.7711663  47.2373224  84.3563224  45.4171663
  47.1023224  84.1313224  46.4751663  46.4523224  85.0373224  45.0891663
  47.1823224  83.4333224  44.8411663  49.7203224  84.1893224  45.8461663
  49.4633224  84.0193224  46.8921663  49.7913224  83.2313224  45.3301663
  50.6783224  84.7053224  45.7871663  50.2283224  86.4623224  41.8901663
  49.8993224  87.5493224  41.4071663  50.6873224  85.4643224  41.1111663
  51.1873224  84.1313224  41.5521663  51.8813224  84.2093224  42.4021663
  50.3613224  83.4443224  41.7871663  51.9223224  83.6333224  40.3541663
  52.9973224  83.8483224  40.4401663  51.8233224  82.5413224  40.2621663
  51.3483224  84.3153224  39.1301663  52.0983224  84.4673224  38.3401663
  50.5183224  83.7493224  38.6811663  50.8373224  85.6853224  39.6481663
  51.5933224  86.4653224  39.4761663  49.5303224  86.0933224  38.9291663
  48.4443224  85.6553224  39.3211663  49.6433224  86.9353224  37.9211663
  50.5723224  87.2783224  37.7221663  48.5193224  87.3913224  37.0921663
  47.8443224  86.5483224  36.9431663  47.8173224  88.5543224  37.8021663
  46.9813224  88.9003224  37.1941663  47.4473224  88.2193224  38.7711663
  48.5223224  89.3713224  37.9461663  49.0803224  87.8523224  35.7381663
  50.1193224  88.4853224  35.6661663  48.3513224  87.5393224  34.6531663
  47.4983224  87.0153224  34.7831663  48.7443224  87.9253224  33.3141663
  49.7733224  88.2853224  33.3461663  48.6903224  86.7123224  32.3761663
  48.7923224  87.0463224  31.3431663  47.7193224  86.2243224  32.4681663
  49.8183224  85.6933224  32.7071663  49.6333224  85.2513224  33.6861663
  50.7783224  86.2103224  32.7361663  49.9323224  84.5563224  31.6971663
  50.1163224  84.9683224  30.7051663  48.9963224  83.9973224  31.6711663
  51.0723224  83.6173224  32.0721663  50.8503224  83.1383224  33.0261663
  51.9923224  84.1893224  32.1831663  51.2843224  82.5583224  31.0411663
  52.0453224  81.9583224  31.3261663  50.4413224  82.0093224  30.9431663
  51.5093224  82.9893224  30.1561663  47.9273224  89.0703224  32.7151663
  48.4213224  89.7373224  31.7551663  46.7573224  89.3533224  33.2771663
  46.4253224  88.7823224  34.0411663  45.9233224  90.4913224  32.8081663
  46.4843224  91.0443224  32.0541663  44.6493224  89.9373224  32.1401663
  44.0713224  90.7603224  31.7201663  44.0273224  89.4503224  32.8911663
  44.9363224  88.9353224  31.0291663  45.4753224  88.0873224  31.4491663
  45.5793224  89.4063224  30.2861663  43.6703224  88.4363224  30.3411663
  42.6733224  88.0983224  31.0531663  43.7053224  88.3963224  29.0901663
  45.5323224  91.5413224  33.8441663  45.5463224  91.2993224  35.0461663
  45.1923224  92.7493224  33.3671663  45.3153224  92.9463224  32.3841663
  44.6473224  93.7883224  34.2381663  43.8313224  93.3753224  34.8301663
  44.2293224  94.5913224  33.6301663  45.6363224  94.4123224  35.1991663
  46.8723224  94.1413224  35.1081663  45.1043224  95.1943224  36.1251663
  44.1013224  95.3153224  36.1241663  45.9053224  95.8823224  37.1391663
  46.6203224  96.5313224  36.6331663  45.1113224  96.8863224  38.0051663
  44.4563224  97.4713224  37.3591663  44.1993224  96.1743224  38.9811663
  43.6553224  96.9103224  39.5741663  43.4893224  95.5563224  38.4311663
  44.7943224  95.5453224  39.6421663  46.0683224  97.8453224  38.7551663
  45.4863224  98.5423224  39.3571663  46.7273224  97.2683224  39.4041663
  46.6663224  98.4013224  38.0331663  46.6483224  94.8383224  37.9821663
  47.7993224  95.0893224  38.4191663  46.0913224  93.6393224  38.1721663
  45.1963224  93.4453224  37.7461663  46.7443224  92.5913224  38.9851663
  46.9703224  93.0063224  39.9681663  45.8243224  91.3573224  39.1901663
  46.3743224  90.5763224  39.7141663  45.5313224  90.9563224  38.2191663
  44.5463224  91.7003224  39.9981663  44.7863224  92.4743224  40.7261663
  44.2253224  90.8133224  40.5441663  43.3423224  92.1933224  39.1501663
  43.4363224  92.4653224  37.9121663  42.2523224  92.3293224  39.8111663
  48.0363224  92.1603224  38.3091663  49.0103224  91.8813224  39.0121663
  48.1073224  92.1233224  36.9911663  47.2863224  92.3113224  36.4341663
  49.3673224  91.8113224  36.3191663  49.7623224  90.8843224  36.7381663
  49.1523224  91.5393224  34.8291663  48.3323224  90.8333224  34.7031663
  50.0473224  91.0793224  34.4101663  48.8513224  92.7073224  34.0461663
  48.0843224  93.1863224  34.4631663  50.4093224  92.9003224  36.5291663
  51.6023224  92.5483224  36.6091663  50.0133224  94.1693224  36.6001663
  49.0403224  94.3943224  36.4481663  50.9583224  95.2503224  36.8941663
  51.8073224  95.1613224  36.2161663  50.3213224  96.6383224  36.6221663
  49.4353224  96.7603224  37.2451663  51.3163224  97.7843224  36.9391663
  50.8413224  98.7443224  36.7391663  51.6063224  97.7343224  37.9881663
  52.2013224  97.6813224  36.3131663  49.9523224  96.6553224  35.2231663
  49.5053224  97.5243224  34.9971663  51.4613224  95.1323224  38.3211663
  52.6763224  95.3273224  38.5571663  50.6003224  94.8353224  39.2931663
  49.6283224  94.7163224  39.0451663  51.0013224  94.6773224  40.6801663
  51.4923224  95.5943224  41.0041663  49.7803224  94.5343224  41.6101663
  49.1773224  93.6853224  41.2901663  50.1963224  94.3053224  43.0661663
  49.3063224  94.2103224  43.6881663  50.7863224  93.3923224  43.1361663
  50.7923224  95.1503224  43.4111663  48.9433224  95.8493224  41.5491663
  48.8343224  96.1633224  40.5111663  49.4733224  96.6423224  42.0761663
  47.5203224  95.6963224  42.1751663  46.9863224  96.6443224  42.1021663
  46.9663224  94.9263224  41.6371663  47.6123224  95.4123224  43.2221663
  51.9973224  93.5133224  40.8251663  52.9923224  93.6333224  41.5611663
  51.7393224  92.4073224  40.1201663  50.8893224  92.3583224  39.5761663
  52.6533224  91.2693224  40.1161663  52.8453224  90.9763224  41.1481663
  52.0063224  90.0113224  39.4701663  51.5733224  90.2793224  38.5071663
  51.1963224  89.6523224  40.1051663  52.9523224  88.8443224  39.2351663
  53.4513224  88.4683224  38.0291663  53.2353224  88.9633224  37.0841663
  54.2723224  87.3603224  38.2051663  54.7353224  86.8483224  37.4681663
  54.3633224  87.0573224  39.5401663  55.0193224  86.0083224  40.2011663
  55.6563224  85.2983224  39.6721663  54.8423224  85.8923224  41.5521663
  55.3423224  85.0863224  42.0901663  54.0363224  86.7833224  42.2481663
  53.9293224  86.7093224  43.3311663  53.3403224  87.7923224  41.6091663
  52.6643224  88.4413224  42.1661663  53.5183224  87.9743224  40.2241663
  54.0043224  91.6213224  39.4651663  55.0363224  91.2243224  40.0051663
  54.0353224  92.3563224  38.3281663  53.1623224  92.6123224  37.8901663
  55.2723224  92.7823224  37.7271663  55.8743224  91.9003224  37.5131663
  54.9753224  93.5143224  36.4141663  54.2743224  94.3233224  36.6181663
  54.5013224  92.8153224  35.7271663  56.1603224  94.1283224  35.6761663
  56.7373224  94.7463224  36.3651663  57.1043224  93.0733224  35.1781663
  57.9373224  93.5463224  34.6571663  57.4853224  92.4983224  36.0221663
  56.5783224  92.4093224  34.4931663  55.6453224  95.0283224  34.4751663
  56.4993224  95.4633224  33.9541663  55.0703224  94.4143224  33.7811663
  55.0123224  95.8263224  34.8641663  56.0503224  93.6943224  38.7111663
  57.2733224  93.5423224  38.8281663  55.3903224  94.6303224  39.3911663
  54.4093224  94.7763224  39.2021663  56.0493224  95.4503224  40.4021663
  56.9063224  95.9423224  39.9431663  55.0883224  96.5443224  40.9121663
  55.5393224  97.0263224  41.7791663  54.1593224  96.0713224  41.2271663
  54.7213224  97.6563224  39.9051663  54.3833224  97.2053224  38.9721663
  53.5433224  98.5113224  40.4061663  53.3143224  99.2823224  39.6701663
  52.6683224  97.8773224  40.5491663  53.8113224  98.9803224  41.3521663
  55.9053224  98.5443224  39.6041663  55.6103224  99.3153224  38.8911663
  56.2503224  99.0143224  40.5251663  56.7103224  97.9453224  39.1781663
  56.5673224  94.5933224  41.5831663  57.6713224  94.8533224  42.0551663
  55.8063224  93.5943224  42.0501663  54.8853224  93.4633224  41.6561663
  56.2683224  92.6833224  43.1161663  56.4573224  93.2773224  44.0111663
  55.1673224  91.6553224  43.4601663  55.5233224  90.9913224  44.2471663
  54.2753224  92.1793224  43.8031663  54.9263224  91.0703224  42.5741663
  57.5803224  91.9853224  42.7391663  58.5263224  91.9443224  43.5231663
  57.6683224  91.5253224  41.4781663  56.8593224  91.5793224  40.8761663
  58.9023224  90.9503224  40.9581663  59.1893224  90.1133224  41.5961663
  58.7463224  90.3473224  39.5531663  59.7293224  90.0953224  39.1541663
  58.3023224  91.0873224  38.8871663  57.8603224  89.0633224  39.5181663
  56.8293224  89.3263224  39.7531663  58.2163224  88.3553224  40.2671663
  57.8803224  88.3663224  38.1451663  57.4123224  87.3853224  38.2281663
  58.9133224  88.2303224  37.8211663  57.1533224  89.1323224  37.0621663
  57.6113224  90.1133224  36.9401663  56.1133224  89.2753224  37.3531663
  57.1933224  88.3993224  35.7151663  56.6993224  88.9423224  35.0211663
  58.1533224  88.2773224  35.4261663  56.7543224  87.4953224  35.8101663
  60.0323224  91.9973224  40.9941663  61.1513224  91.6473224  41.3811663
  59.7623224  93.2443224  40.6381663  58.8373224  93.4963224  40.3211663
  60.7973224  94.2713224  40.6991663  61.6503224  93.9273224  40.1141663
  60.2893224  95.6153224  40.0951663  61.0803224  96.3623224  40.1531663
  60.0103224  95.4633224  39.0521663  59.4223224  95.9613224  40.6561663
  61.2833224  94.4903224  42.1571663  62.4743224  94.6763224  42.3741663
  60.3843224  94.5203224  43.1561663  59.3973224  94.4123224  42.9691663
  60.8283224  94.7093224  44.5241663  61.4123224  95.6283224  44.5741663
  59.6253224  94.8163224  45.4871663  59.9753224  94.7423224  46.5161663
  58.9433224  93.9823224  45.3121663  58.8153224  96.1003224  45.3711663
  59.3833224  97.3303224  45.7031663  60.3973224  97.3723224  46.1011663
  58.6843224  98.5503224  45.5411663  59.1613224  99.4913224  45.8121663
  57.3973224  98.5123224  45.0471663  56.6493224  99.6763224  44.9071663
  57.1623224 100.4353224  45.2971663  56.8293224  97.3203224  44.7361663
  55.8143224  97.3153224  44.3371663  57.5133224  96.1183224  44.9171663
  57.0013224  95.1823224  44.6941663  61.7333224  93.5523224  44.9641663
  62.7403224  93.7543224  45.6801663  61.4013224  92.3153224  44.5511663
  60.5453224  92.2053224  44.0261663  62.2393224  91.1143224  44.8361663
  62.3343224  91.0073224  45.9171663  61.5953224  89.8443224  44.3101663
  61.3223224  89.9923224  43.2651663  62.5713224  88.6503224  44.2971663
  62.0613224  87.7673224  43.9121663  63.4233224  88.8833224  43.6591663
  62.9193224  88.4543224  45.3111663  60.3283224  89.5233224  45.1381663
  59.8673224  88.6123224  44.7591663  60.6023224  89.3833224  46.1841663
  59.6213224  90.3493224  45.0561663  63.5913224  91.3263224  44.1881663
  64.6633224  91.0553224  44.8161663  63.6233224  91.7003224  42.8871663
  62.7763224  91.8963224  42.3731663  64.9243224  91.8243224  42.2021663
  65.4983224  90.9173224  42.3841663  64.7653224  91.8373224  40.6751663
  64.0943224  92.6463224  40.3861663  66.1253224  92.0513224  39.9491663
  65.9663224  92.0533224  38.8711663  66.5543224  93.0053224  40.2541663
  66.8093224  91.2453224  40.2131663  64.0973224  90.5213224  40.1931663
  64.0323224  90.5233224  39.1051663  63.0803224  90.4673224  40.5801663
  64.7833224  89.2423224  40.5851663  64.2243224  88.3933224  40.1911663
  65.7943224  89.2313224  40.1771663  64.8293224  89.1723224  41.6711663
  65.7553224  93.0093224  42.7271663  66.9743224  92.9183224  42.7321663
  65.1483224  94.0763224  43.2471663  64.1493224  94.1903224  43.1501663
  65.9263224  95.1083224  43.9731663  66.6873224  95.5053224  43.3001663
  65.0803224  96.3443224  44.3261663  64.1653224  96.0173224  44.8201663
  65.8673224  97.3003224  45.3041663  65.2503224  98.1673224  45.5401663
  66.1063224  96.7643224  46.2221663  66.7883224  97.6313224  44.8261663
  64.7133224  97.1333224  43.0601663  64.1153224  98.0023224  43.3331663
  65.6243224  97.4623224  42.5601663  64.1403224  96.4953224  42.3871663
  66.5893224  94.4793224  45.1951663  67.7963224  94.6903224  45.4271663
  65.8923224  93.6863224  45.9921663  64.9043224  93.5583224  45.8281663
  66.5313224  92.9813224  47.1211663  66.9643224  93.7243224  47.7931663
  65.5623224  92.0513224  47.8961663  66.1373224  91.3563224  48.5081663
  64.9803224  91.4603224  47.1881663  64.5363224  92.6783224  48.8441663
  63.8063224  91.8993224  49.4911663  64.5263224  93.9863224  49.0371663
  63.8553224  94.3953224  49.6571663  65.1883224  94.5663224  48.5641663
  67.6883224  92.0773224  46.5911663  68.8053224  92.0743224  47.1401663
  67.4003224  91.3073224  45.5221663  66.4813224  91.3553224  45.1061663
  68.3973224  90.3983224  44.9491663  68.7383224  89.7203224  45.7321663
  67.7753224  89.4773224  43.8891663  67.6423224  90.0303224  42.9591663
  66.7883224  89.1543224  44.2221663  68.6103224  88.2743224  43.6181663
  68.5123224  87.2563224  44.3641663  69.4953224  88.2973224  42.7141663
  69.6103224  91.0873224  44.4171663  70.7353224  90.6273224  44.6291663
  69.4103224  92.2123224  43.7221663  68.4463224  92.4863224  43.5981663
  70.4883224  93.0613224  43.1371663  71.0493224  92.4623224  42.4181663
  69.8743224  94.2753224  42.3531663  70.6493224  95.0183224  42.1681663
  69.1053224  94.7503224  42.9621663  69.3293224  93.7903224  41.1291663
  69.3393224  94.5223224  40.4511663  71.4103224  93.5323224  44.2381663
  72.6123224  93.4663224  44.1591663  70.8143224  94.0493224  45.2771663
  69.8053224  94.0873224  45.3131663  71.5943224  94.5843224  46.4101663
  72.3103224  95.3103224  46.0251663  70.6803224  95.3143224  47.3871663
  71.2253224  95.5243224  48.3071663  69.8373224  94.6733224  47.6451663
  69.9983224  96.8693224  46.8171663  69.5303224  96.7363224  45.9401663
  72.3403224  93.4583224  47.1081663  73.5453224  93.5993224  47.4141663
  71.6983224  92.3273224  47.3821663  70.7213224  92.2523224  47.1371663
  72.3513224  91.2093224  48.0151663  72.8203224  91.5583224  48.9361663
  71.3593224  90.0723224  48.3631663  71.0353224  89.5793224  47.4471663
  70.4733224  90.4953224  48.8391663  71.9773224  89.0083224  49.3121663
  71.8723224  89.1423224  50.6961663  71.3533224  90.0013224  51.1231663
  72.4013224  88.2273224  51.5491663  72.3003224  88.3633224  52.6251663
  73.0303224  87.1313224  51.0621663  73.5563224  86.2203224  52.0341663
  73.7503224  85.3673224  51.5711663  73.1473224  86.8933224  49.7141663
  73.6313224  86.0083224  49.3011663  72.5903224  87.8883224  48.8321663
  72.6693224  87.7283224  47.7571663  73.4453224  90.6583224  47.0991663
  74.5603224  90.3293224  47.5721663  73.1823224  90.5323224  45.7911663
  72.2583224  90.7443224  45.4411663  74.2123224  90.0923224  44.8571663
  74.5283224  89.0823224  45.1141663  73.6633224  90.1173224  43.4081663
  73.1603224  91.0673224  43.2261663  72.9223224  89.3263224  43.2861663
  74.7423224  89.9353224  42.3961663  75.2723224  91.0163224  41.7071663
  76.2533224  90.5693224  40.9171663  76.8403224  91.1733224  40.2261663
  76.4053224  89.2683224  41.1041663  77.0893224  88.6823224  40.6481663
  75.4703224  88.8473224  42.0281663  75.3363224  87.8293224  42.3951663
  75.4233224  91.0193224  44.9511663  76.5733224  90.5373224  45.0301663
  75.2063224  92.3223224  44.8091663  74.2783224  92.7203224  44.8181663
  76.3603224  93.2063224  44.6331663  76.9953224  92.7943224  43.8491663
  75.8643224  94.5863224  44.2261663  75.2663224  95.0103224  45.0331663
  75.2193224  94.4983224  43.3521663  76.9353224  95.5883224  43.8901663
  77.5933224  95.7033224  44.7511663  76.4643224  96.5413224  43.6501663
  77.7943224  95.2323224  42.7381663  79.0123224  95.3673224  42.8471663
  77.1933224  94.7543224  41.6061663  77.7483224  94.5053224  40.8111663
  76.1993224  94.6533224  41.5721663  77.1673224  93.2863224  45.9131663
  78.4123224  93.2553224  45.8601663  76.5143224  93.3993224  47.0441663
  75.5073224  93.3193224  47.0321663  77.1993224  93.6383224  48.3261663
  78.0783224  94.2533224  48.1391663  76.2873224  94.4233224  49.2861663
  76.7523224  94.4403224  50.2721663  75.3353224  93.9013224  49.3661663
  75.9983224  95.8663224  48.8791663  75.7203224  95.8983224  47.8251663
  74.7183224  96.3943224  49.6041663  74.5273224  97.4243224  49.3021663
  73.8643224  95.7733224  49.3331663  74.8683224  96.3553224  50.6821663
  77.2803224  96.7213224  49.1131663  77.0863224  97.7553224  48.8251663
  77.5553224  96.6843224  50.1671663  78.0973224  96.3243224  48.5111663
  77.6693224  92.3583224  48.9881663  78.7193224  92.3703224  49.6521663
  76.9533224  91.2563224  48.8101663  76.2063224  91.2783224  48.1301663
  77.2063224  90.0053224  49.5651663  77.9653224  90.2053224  50.3211663
  75.9923224  89.4853224  50.2861663  76.3043224  88.8163224  51.0891663
  75.3803224  88.9053224  49.5961663  75.1083224  90.5763224  50.8981663
  74.2973224  90.1143224  51.4611663  74.6703224  91.1783224  50.1031663
  75.9873224  91.6993224  52.0191663  74.5683224  92.8843224  52.4331663
  74.9243224  93.6523224  53.1201663  74.2073224  93.3543224  51.5171663
  73.7543224  92.3283224  52.9011663  77.7423224  88.8893224  48.6731663
  78.8733224  88.4463224  48.8681663  76.9863224  88.4253224  47.6471663
  76.0663224  88.8013224  47.4661663  77.5033224  87.3653224  46.7861663
  77.7173224  86.4913224  47.4031663  76.4683224  86.9743224  45.6921663
  76.8623224  86.1523224  45.0961663  76.3113224  87.8183224  45.0211663
  75.2533224  86.6013224  46.3311663  74.8443224  87.4053224  46.7591663
  78.7903224  87.7333224  46.0821663  79.6753224  86.8543224  45.8691663
  78.8993224  88.9883224  45.6681663  78.1473224  89.6073224  45.9361663
  80.0013224  89.5123224  44.8761663  80.5043224  88.6913224  44.3651663
  79.4773224  90.4193224  43.7491663  79.1033224  91.3503224  44.1751663
  78.6413224  89.9303224  43.2471663  80.4923224  90.7603224  42.7231663
  80.2423224  91.6743224  41.7191663  79.3763224  92.1783224  41.5961663
  81.3173224  91.7773224  40.9551663  81.4123224  92.4063224  40.0701663
  82.2643224  90.9893224  41.4401663  81.7723224  90.3463224  42.5591663
  82.3093224  89.6313224  43.1831663  81.0393224  90.2133224  45.7911663
  82.1503224  89.7063224  45.9671663  80.7233224  91.3623224  46.3891663
  79.7833224  91.7253224  46.3181663  81.7283224  92.1183224  47.1571663
  82.5893224  92.3013224  46.5141663  81.2613224  93.5273224  47.5341663
  80.2763224  93.4723224  47.9971663  81.1663224  94.1323224  46.6321663
  82.2373224  94.1493224  48.4721663  82.1143224  94.2493224  49.8441663
  81.2353224  93.9533224  50.4141663  83.2663224  94.7793224  50.3901663
  83.4223224  94.9623224  51.3711663  84.1583224  95.0153224  49.3821663
  85.4893224  95.5133224  49.4561663  85.9663224  95.7523224  50.4071663
  86.1563224  95.6813224  48.2731663  87.1673224  96.0893224  48.2821663
  85.6093224  95.3583224  47.0561663  86.1783224  95.4943224  46.1361663
  84.2713224  94.8323224  46.9601663  83.8403224  94.5813224  45.9911663
  83.5503224  94.6533224  48.1521663  82.1943224  91.3193224  48.3851663
  83.3963224  91.0743224  48.5331663  81.2983224  90.9553224  49.2921663
  80.3063224  91.0883224  49.1561663  81.7743224  90.3363224  50.5401663
  82.5363224  90.9813224  50.9771663  80.6233224  90.1163224  51.5121663
  79.9073224  89.4343224  51.0541663  80.1263224  91.0703224  51.6841663
  80.9623224  89.5373224  52.8991663  81.5663224  88.6373224  52.7801663
  81.8653224  90.4483224  53.7121663  82.0703224  89.9883224  54.6791663
  82.8033224  90.6023224  53.1781663  81.3723224  91.4073224  53.8641663
  79.6723224  89.1603224  53.7021663  79.9543224  88.7553224  54.6741663
  79.0593224  90.0503224  53.8441663  79.1043224  88.4133224  53.1481663
  82.3923224  88.9763224  50.2931663  83.4993224  88.7053224  50.7971663
  81.7303224  88.0903224  49.5601663  80.9203224  88.3943224  49.0401663
  82.1373224  86.6993224  49.4851663  82.4773224  86.3843224  50.4731663
  80.9873224  85.7673224  49.0311663  81.3933224  84.7913224  48.7641663
  80.5143224  86.1803224  48.1391663  79.9243224  85.5613224  50.0711663
  80.0493224  86.0103224  51.2421663  78.8523224  84.8313224  49.6881663
  78.1083224  84.6573224  50.3341663  78.8033224  84.4653224  48.7591663
  83.3123224  86.4143224  48.5641663  83.9213224  85.3433224  48.6341663
  83.6203224  87.3353224  47.6711663  83.0593224  88.1723224  47.5991663
  84.7723224  87.1653224  46.7721663  85.1733224  86.1603224  46.9091663
  84.3513224  87.0443224  45.2561663  85.2303224  86.8203224  44.6511663
  83.2953224  85.9003224  45.0911663  83.0073224  85.8193224  44.0431663
  83.7273224  84.9563224  45.4231663  82.4153224  86.1283224  45.6921663
  83.8703224  88.2953224  44.7271663  83.2063224  88.7053224  45.3591663
  85.8333224  88.2053224  47.1501663  86.7253224  87.9333224  47.9441663
  85.6403224  89.4363224  46.6551663  84.8043224  89.6213224  46.1191663
  86.6093224  90.5233224  46.8691663  87.4983224  90.3423224  46.2661663
  86.0063224  91.8813224  46.3831663  86.6443224  92.7013224  46.7121663
  85.0253224  92.0273224  46.8371663  85.8453224  91.9933224  44.9011663
  86.7563224  92.6513224  44.0981663  87.5943224  93.1043224  44.4341663
  86.3523224  92.5903224  42.8231663  86.8613224  93.0403224  41.9711663
  85.2403224  91.8963224  42.7791663  84.9143224  91.4953224  44.0651663
  84.0463224  90.9043224  44.3581663  87.1043224  90.6503224  48.3071663
  88.3173224  90.5913224  48.5991663  86.1803224  90.8653224  49.2241663
  85.2013224  90.8083224  48.9811663  86.5553224  91.1883224  50.6011663
  87.3753224  91.9063224  50.5691663  85.3753224  91.8543224  51.3881663
  85.6963224  92.0773224  52.4051663  85.0813224  92.7783224  50.8891663
  84.5273224  91.1723224  51.4171663  87.0623224  89.9473224  51.3691663
  88.0293224  90.0453224  52.1861663  86.4443224  88.7733224  51.1501663
  85.6993224  88.7343224  50.4691663  86.8203224  87.5493224  51.8701663
  86.8283224  87.7733224  52.9371663  85.8173224  86.4243224  51.5871663
  86.1143224  85.5273224  52.1301663  84.8233224  86.7323224  51.9121663
  85.8003224  86.2133224  50.5191663  88.1893224  87.0903224  51.4811663
  88.8903224  86.4483224  52.2991663  88.5783224  87.3713224  50.2501663
  88.0153224  87.9573224  49.6501663  89.8333224  86.8343224  49.7421663
  89.9643224  85.8273224  50.1381663  89.7953224  86.7033224  48.1821663
  89.7533224  87.6973224  47.7341663  88.8923224  86.1723224  47.8841663
  90.9883224  85.9723224  47.6011663  91.8993224  86.5273224  47.8241663
  90.8843224  85.9103224  46.5181663  91.3343224  84.2993224  48.1241663
  89.7023224  83.6033224  47.7691663  89.6943224  82.5443224  48.0271663
  88.9473224  84.1263224  48.3571663  89.4803224  83.7203224  46.7081663
  91.0543224  87.6383224  50.1911663  92.1323224  87.0733224  50.3671663
  90.9453224  88.9623224  50.2871663  90.0403224  89.3973224  50.1791663
  92.0983224  89.7923224  50.5431663  92.7813224  89.7063224  49.6971663
  91.6843224  91.2923224  50.5381663  90.9863224  91.4793224  51.3541663
  91.1683224  91.5243224  49.6061663  92.8893224  92.2283224  50.6881663
  93.6773224  91.9003224  50.0111663  93.2693224  92.1543224  51.7071663
  92.6323224  93.6873224  50.4141663  91.5053224  94.0713224  50.0461663
  93.6093224  94.5013224  50.4791663  92.9173224  89.3973224  51.7781663
  94.1363224  89.3953224  51.6741663  92.2993224  89.0103224  52.9201663
  90.8703224  89.1173224  53.2691663  90.4733224  90.1183224  53.0451663
  90.2783224  88.3413224  52.7611663  90.8353224  88.8923224  54.7011663
  90.7703224  89.8523224  55.2351663  89.9393224  88.3163224  54.9731663
  92.0473224  88.1673224  55.1071663  92.3903224  88.4463224  56.1141663
  91.9083224  87.0763224  55.1051663  93.1023224  88.5643224  54.0641663
  93.7053224  89.4073224  54.4331663  94.0293224  87.3833224  53.7331663
  95.1393224  87.3223224  54.2671663  93.5673224  86.4463224  52.8961663
  92.6233224  86.5213224  52.5451663  94.3983224  85.3133224  52.4751663
  94.8353224  84.8553224  53.3641663  93.5843224  84.1953224  51.8151663
  94.2513224  83.3883224  51.5151663  93.1073224  84.5763224  50.9131663
  92.5163224  83.6233224  52.7161663  92.8533224  82.8963224  53.8441663
  93.9053224  82.7293224  54.0751663  91.8293224  82.3863224  54.6731663
  92.0843224  81.7873224  55.5471663  90.5323224  82.6363224  54.3891663
  89.7483224  82.2753224  55.0531663  90.1883224  83.3213224  53.3011663
  89.1353224  83.4553224  53.0521663  91.1923224  83.8693224  52.4761663
  90.9173224  84.4313224  51.5831663  95.5523224  85.7693224  51.5551663
  96.6643224  85.2263224  51.6801663  95.3483224  86.7453224  50.6571663
  94.4093224  87.0933224  50.5251663  96.4353224  87.3163224  49.8691663
  96.8523224  86.5323224  49.2351663  95.9503224  88.4343224  48.9471663
  95.6123224  89.2733224  49.5551663  97.1493224  88.9403224  48.0311663
  96.7963224  89.7373224  47.3771663  97.9543224  89.3183224  48.6611663
  97.5193224  88.1123224  47.4261663  94.7993224  87.9403224  48.0851663
  94.4613224  88.7453224  47.4331663  95.1343224  87.0983224  47.4791663
  93.9763224  87.6223224  48.7251663  97.5193224  87.8523224  50.8261663
  98.7323224  87.5653224  50.6591663  97.1423224  88.7083224  51.7891663
  96.1533224  88.8803224  51.9041663  98.0753224  89.3813224  52.6521663
  98.7753224  89.9423224  52.0341663  97.3193224  90.4393224  53.5821663
  96.4563224  89.9633224  54.0471663  98.2613224  90.9613224  54.6921663
  97.7283224  91.6803224  55.3131663  98.5953224  90.1273224  55.3081663
  99.1263224  91.4453224  54.2381663  96.7333224  91.5503224  52.7641663
  96.3413224  91.1473224  51.8301663  97.5153224  92.2643224  52.5071663
  95.6283224  92.2693224  53.4901663  95.2343224  93.0653224  52.8571663
  94.8293224  91.5653224  53.7261663  96.0183224  92.6993224  54.4121663
  98.8663224  88.3283224  53.4821663 100.1013224  88.3573224  53.5411663
  98.1733224  87.3843224  54.1141663  97.1643224  87.3993224  54.0621663
  98.8343224  86.3233224  54.8841663  99.4043224  86.7923224  55.6861663
  97.7593224  85.3703224  55.5431663  98.2653224  84.5893224  56.1101663
  97.1213224  85.9483224  56.2111663  97.1503224  84.9153224  54.7631663
  99.8433224  85.4923224  54.0841663 100.8883224  85.1033224  54.5871663
  99.4743224  85.1923224  52.8321663  98.5853224  85.5283224  52.4911663
 100.3353224  84.3793224  51.9321663 100.5303224  83.4203224  52.4131663
  99.6333224  84.0593224  50.5821663  99.3923224  84.9893224  50.0681663
 100.5473224  83.2083224  49.6811663 100.0373224  82.9963224  48.7421663
 101.4683224  83.7543224  49.4791663 100.7843224  82.2713224  50.1841663
  98.4073224  83.3423224  50.8261663  97.6943224  83.9753224  51.1411663
 101.6793224  85.1003224  51.6951663 102.7233224  84.4833224  51.8421663
 101.6623224  86.3963224  51.3331663 100.7853224  86.8853224  51.2281663
 102.9183224  87.1183224  51.0851663 103.5493224  86.5323224  50.4181663
 102.6183224  88.4493224  50.3461663 103.5043224  89.0833224  50.3641663
 101.8223224  88.9833224  50.8671663 102.2043224  88.2393224  48.9181663
 103.1293224  88.0503224  47.9061663 102.4853224  87.8513224  46.7671663
 102.9473224  87.6583224  45.7991663 101.1833224  87.9253224  47.0011663
 100.4533224  87.8483224  46.3071663 100.9903224  88.1243224  48.3501663
 100.0313224  88.2273224  48.8581663 103.7103224  87.3463224  52.3691663
 104.9163224  87.3173224  52.3441663 103.0273224  87.5463224  53.5011663
 102.0193224  87.5693224  53.4361663 103.6573224  87.7293224  54.7971663
 104.4403224  88.4813224  54.6981663 102.6453224  88.1983224  55.8591663
 103.0903224  88.1103224  56.8501663 101.7683224  87.5523224  55.8361663
 102.1773224  89.6423224  55.6741663 101.7083224  89.7503224  54.6951663
 103.0333224  90.3143224  55.7421663 101.1623224  90.1083224  56.7081663
 100.2523224  89.5163224  56.6171663 100.9293224  91.1593224  56.5411663
 101.6023224  89.9913224  58.0871663 101.3853224  89.1343224  58.5791663
 102.2683224  90.9143224  58.7661663 102.6383224  92.0443224  58.2111663
 102.4163224  92.2283224  57.2431663 103.1453224  92.7303224  58.7521663
 102.5693224  90.7023224  60.0381663 102.2913224  89.8403224  60.4861663
 103.0763224  91.4013224  60.5601663 104.3503224  86.4793224  55.3811663
 105.3383224  86.6243224  56.1311663 103.8713224  85.2733224  55.0551663
 103.1993224  85.1973224  54.3051663 104.3003224  84.0503224  55.7641663
 105.1683224  84.2743224  56.3841663 103.2383224  83.5973224  56.8031663
 103.4213224  82.5593224  57.0811663 102.2453224  83.6463224  56.3541663
 103.2493224  84.4403224  58.0451663 102.2423224  85.3443224  58.3601663
 102.4953224  85.8683224  59.5571663 101.8793224  86.6043224  60.0741663
 103.6243224  85.3423224  60.0171663 104.0583224  85.5573224  60.9041663
 104.1113224  84.4563224  59.0941663 105.0233224  83.8663224  59.1821663
 104.7653224  82.8563224  54.9121663 105.4213224  81.9593224  55.4971663
 104.3913224  82.7983224  53.6291663 103.7513224  83.4963224  53.2771663
 104.8833224  81.7513224  52.7181663 105.3373224  80.9603224  53.3141663
 103.7303224  81.1163224  51.9151663 104.1433224  80.3463224  51.2641663
 103.2773224  81.8853224  51.2911663 102.6043224  80.4683224  52.7401663
 102.0683224  81.2403224  53.2931663 101.5543224  79.8313224  51.8391663
 100.7723224  79.3823224  52.4521663 101.1163224  80.5943224  51.1951663
 102.0203224  79.0613224  51.2251663 103.1423224  79.4483224  53.7461663
 102.3123224  79.0173224  54.3061663 103.6713224  78.6573224  53.2141663
 103.8273224  79.9433224  54.4351663 105.9293224  82.3613224  51.7791663
 105.6423224  83.2803224  51.0041663 107.1303224  81.8213224  51.7811663
 107.3213224  81.0613224  52.4191663 108.1953224  82.2883224  50.8881663
 108.3463224  83.3553224  51.0581663 109.4673224  81.4753224  51.1341663
 109.2333224  80.4123224  51.0901663 109.8463224  81.6863224  52.1341663
 110.4753224  81.7813224  50.1691663 111.3193224  81.3103224  50.4161663
 107.7693224  82.0533224  49.4401663 107.0053224  81.1303224  49.1491663
 108.2823224  82.9003224  48.5301663 108.7653224  83.7353224  48.8301663
 108.1483224  82.6243224  47.0711663 107.0963224  82.7113224  46.7981663
 108.9583224  83.6603224  46.1901663 108.9703224  83.3133224  45.1571663
 108.3433224  85.0343224  46.2361663 108.9283224  85.7163224  45.6181663
 107.3223224  84.9883224  45.8581663 108.3343224  85.3943224  47.2641663
 110.3713224  83.7893224  46.6801663 110.9073224  84.5053224  46.0591663
 110.3683224  84.1363224  47.7141663 110.8653224  82.8193224  46.6241663
 108.6303224  81.1773224  46.6961663 108.1403224  80.6363224  45.6671663
 109.5313224  80.6013224  47.4761663 109.9103224  81.1443224  48.2391663
 109.9983224  79.2163224  47.2791663 110.2433224  79.0803224  46.2261663
 111.2063224  78.9513224  48.1391663 111.4583224  77.8933224  48.0671663
 110.9513224  79.1733224  49.1741663 112.4583224  79.7533224  47.7861663
 112.1893224  80.7983224  47.6321663 113.4433224  79.7183224  48.9611663
 114.3343224  80.2913224  48.7061663 112.9733224  80.1533224  49.8431663
 113.7233224  78.6863224  49.1701663 113.1243224  79.2313224  46.5021663
 114.0103224  79.8273224  46.2831663 113.4133224  78.1893224  46.6401663
 112.4223224  79.3073224  45.6711663 108.9533224  78.1603224  47.6321663
 109.1093224  76.9623224  47.2681663 107.9613224  78.5323224  48.4141663
 107.7793224  79.5123224  48.5781663 107.1023224  77.5243224  49.0611663
 107.7193224  76.7113224  49.4421663 106.3363224  78.1713224  50.2171663
 105.5253224  78.7813224  49.8201663 107.0033224  78.8333224  50.7701663
 105.7463224  77.2083224  51.1881663 104.5833224  76.5053224  50.9331663
 104.2883224  75.7733224  51.9911663 103.4443224  75.0893224  52.0781663
 105.1843224  76.0033224  52.9321663 105.2053224  75.5723224  53.8451663
 106.0903224  76.9303224  52.4641663 106.9493224  77.3273224  53.0071663
 106.1023224  76.9223224  48.0561663 105.5123224  77.6483224  47.2501663
 105.9193224  75.5683224  48.1101663 106.4973224  74.5373224  49.0161663
 107.4913224  74.1993224  48.6861663 106.5303224  74.8803224  50.0611663
 105.4903224  73.3763224  48.8871663 105.9503224  72.3963224  49.0801663
 104.6443224  73.4733224  49.5841663 105.0093224  73.4493224  47.4841663
 105.6873224  72.9453224  46.7791663 104.0153224  72.9953224  47.3541663
 104.9453224  74.9653224  47.1671663 105.3003224  75.1133224  46.1361663
 103.5093224  75.5063224  47.2521663 102.8253224  75.5883224  46.2151663
 103.0593224  75.9053224  48.4401663 103.6663224  75.8683224  49.2461663
 101.7113224  76.3933224  48.5981663 101.0523224  75.7983224  47.9671663
 101.1373224  76.0883224  50.0451663 101.8033224  76.5103224  50.7971663
  99.7253224  76.6993224  50.2531663  99.3713224  76.4653224  51.2571663
  99.7753224  77.7803224  50.1291663  99.0363224  76.2813224  49.5191663
 101.1753224  74.5703224  50.3341663 100.7973224  74.3813224  51.3391663
 102.2063224  74.2203224  50.3031663 100.3513224  73.7233224  49.3471663
 100.4293224  72.6703224  49.6181663  99.3063224  74.0323224  49.3871663
 100.7343224  73.8663224  48.3381663 101.5963224  77.8553224  48.1571663
 100.5423224  78.2603224  47.6281663 102.6843224  78.6243224  48.2481663
 103.4923224  78.3053224  48.7641663 102.7233224  79.9453224  47.6001663
 101.8993224  80.5453224  47.9881663 104.0553224  80.5953224  47.8801663
 104.8553224  79.9693224  47.4861663 104.2023224  80.6743224  48.9581663
 104.2503224  82.0023224  47.2921663 104.5843224  82.1993224  45.9381663
 104.6833224  81.3423224  45.2711663 104.7933224  83.4643224  45.4231663
 105.0503224  83.5883224  44.3721663 104.6693224  84.5843224  46.2731663
 104.8793224  85.8773224  45.7741663 104.3753224  86.5193224  46.3411663
 104.3383224  84.4203224  47.5871663 104.2463224  85.2843224  48.2461663
 104.1163224  83.1233224  48.0911663 103.8333224  83.0153224  49.1381663
 102.5443224  79.7973224  46.1001663 101.7473224  80.5083224  45.4901663
 103.2643224  78.8613224  45.4921663 103.8913224  78.2893224  46.0391663
 103.1713224  78.6363224  44.0431663 103.3503224  79.5833224  43.5341663
 104.2833224  77.6913224  43.5511663 104.0883224  77.4073224  42.5171663
 104.2763224  76.7783224  44.1481663 105.6423224  78.3353224  43.6431663
 105.8633224  78.5713224  44.6831663 105.6453224  79.2633224  43.0701663
 106.7393224  77.4653224  43.1221663 106.6903224  77.4303224  42.0341663
 106.6143224  76.4523224  43.5061663 108.0833224  78.0343224  43.5681663
 108.1993224  77.8943224  44.6431663 108.1133224  79.1023224  43.3581663
 109.1983224  77.3863224  42.8861663 110.0683224  77.7873224  43.2061663
 109.1893224  76.3963224  43.0901663 109.1103224  77.5253224  41.8901663
 101.7893224  78.1513224  43.6261663 101.3193224  78.4953224  42.5251663
 101.1513224  77.3443224  44.4801663 101.6063224  77.0933224  45.3461663
  99.8063224  76.8113224  44.1941663  99.8093224  76.3863224  43.1911663
  99.4473224  75.7313224  45.1791663  99.4363224  76.1633224  46.1801663
 100.2173224  74.9623224  45.1471663  98.1003224  75.0213224  44.9851663
  97.3143224  75.7643224  44.8481663  98.0523224  74.2043224  43.7151663
  97.0773224  73.7243224  43.6281663  98.2123224  74.8563224  42.8561663
  98.8303224  73.4423224  43.7431663  97.7773224  74.1513224  46.2421663
  96.8193224  73.6493224  46.1011663  98.5613224  73.4063224  46.3801663
  97.7253224  74.7903224  47.1231663  98.7483224  77.9253224  44.2491663
  97.8773224  78.0133224  43.3701663  98.8373224  78.8093224  45.2301663
  99.6533224  78.7973224  45.8251663  97.7903224  79.8003224  45.4771663
  96.8443224  79.4023224  45.1121663  97.5983224  79.9893224  46.9861663
  96.8473224  80.7633224  47.1471663  98.5393224  80.3303224  47.4161663
  97.1583224  78.7653224  47.7851663  97.9633224  78.0303224  47.7981663
  96.9413224  79.0923224  49.2851663  96.6293224  78.1903224  49.8131663
  97.8733224  79.4593224  49.7161663  96.1693224  79.8553224  49.3831663
  95.9093224  78.1413224  47.1361663  95.5993224  77.2673224  47.7101663
  95.1013224  78.8733224  47.1241663  96.1413224  77.8413224  46.1141663
  97.9493224  81.1623224  44.7691663  96.9243224  81.7503224  44.3761663
  99.1753224  81.6473224  44.5811663 100.0023224  81.0843224  44.7211663
  99.3253224  83.0423224  44.1571663  98.7723224  83.6763224  44.8511663
 100.7603224  83.5723224  44.3541663 100.8433224  84.5673224  43.9181663
 101.1183224  83.6513224  45.8261663 102.1353224  84.0283224  45.9331663
 100.4263224  84.3233224  46.3331663 101.0513224  82.6593224  46.2701663
 101.6593224  82.7333224  43.6551663 101.8413224  81.8893224  44.1771663
  98.7863224  83.4053224  42.8031663  98.3073224  84.5293224  42.6691663
  98.7553224  82.4603224  41.8211663  99.4353224  81.1443224  41.7421663
 100.4853224  81.1993224  42.0651663  98.8953224  80.3713224  42.3081663
  99.3783224  80.8293224  40.2971663 100.3023224  81.1423224  39.7891663
  99.2773224  79.7463224  40.1331663  98.1813224  81.5633224  39.7111663
  98.3123224  81.8243224  38.6501663  97.2453224  80.9913224  39.7881663
  98.0873224  82.8333224  40.5531663  98.6533224  83.6443224  40.0711663
  96.6423224  83.2593224  40.7721663  96.0653224  84.0643224  39.9971663
  96.0263224  82.7063224  41.7921663  96.5653224  82.0683224  42.3601663
  94.6313224  82.9623224  42.1391663  94.0363224  83.0293224  41.2291663
  94.0283224  81.7343224  42.8711663  92.9703224  81.9093224  43.0631663
  94.5203224  81.6083224  43.8361663  94.1783224  80.4753224  42.0801663
  93.4103224  80.2533224  40.9491663  93.8283224  79.1463224  40.3631663
  93.4253224  78.7203224  39.4451663  94.8333224  78.6183224  41.0721663
  95.3173224  77.7573224  40.8601663  95.0833224  79.4603224  42.1351663
  95.8413224  79.3213224  42.9061663  94.4013224  84.2723224  42.8781663
  93.2453224  84.5513224  43.2551663  95.4463224  85.0703224  43.0731663
  96.3633224  84.7323224  42.8171663  95.3143224  86.4153224  43.6431663
  94.2873224  86.5473224  43.9841663  96.3303224  86.5363224  44.8021663
  96.2093224  87.5013224  45.2931663  97.3443224  86.4973224  44.4031663
  96.2643224  85.4673224  45.9251663  95.0893224  84.7663224  46.2631663
  94.1773224  84.9213224  45.6871663  95.0863224  83.8443224  47.3671663
  94.1753224  83.3053224  47.6241663  96.2973224  83.5993224  48.0661663
  96.2863224  82.6823224  49.0731663  96.3983224  83.1483224  49.9511663
  97.4213224  84.2893224  47.7291663  98.3483224  84.1203224  48.2781663
  97.3883224  85.2233224  46.6711663  98.3113224  85.7623224  46.4581663
  95.5513224  87.5863224  42.6901663  95.4413224  88.7463224  43.1001663
  95.8463224  87.3013224  41.4181663  95.7843224  86.3393224  41.1171663
  96.2593224  88.3413224  40.4381663  97.2223224  88.7463224  40.7491663
  96.4103224  87.7003224  39.0441663  95.4833224  87.1953224  38.7731663
  97.1963224  86.9473224  39.0741663  96.7513224  88.6883224  37.9181663
  97.7433224  89.1083224  38.0901663  96.0143224  89.4913224  37.9031663
  96.7443224  87.9803224  36.5341663  95.8503224  87.3643224  36.4451663
  97.6293224  87.3503224  36.4431663  96.7503224  88.9343224  35.4171663
  95.8583224  89.2853224  35.0941663  97.8343224  89.3783224  34.7911663
  99.0583224  88.9673224  35.1441663  99.1713224  88.3063224  35.9001663
  99.8693224  89.3173224  34.6551663  97.6793224  90.2463224  33.7871663
  96.7533224  90.5503224  33.5201663  98.4873224  90.5983224  33.2951663
  95.2433224  89.5033224  40.3741663  94.0753224  89.2843224  40.0751663
  95.7453224  90.7143224  40.6391663  96.7163224  90.7623224  40.9141663
  94.9443224  91.9863224  40.5481663  95.6293224  92.8323224  40.6201663
  94.2503224  92.1903224  39.1601663  93.2153224  91.8523224  39.2171663
  94.7533224  91.5803224  38.4081663  94.2473224  93.6243224  38.6721663
  95.1453224  94.4103224  39.0161663  93.2003224  93.9693224  37.9451663
  93.1253224  94.9003224  37.5861663  92.4823224  93.3003224  37.7541663
  93.9363224  92.1823224  41.6701663  93.3083224  93.2343224  41.6961663
  93.8283224  91.2703224  42.6541663  94.4823224  90.5023224  42.7061663
  92.7553224  91.3753224  43.6711663  91.8123224  91.5753224  43.1601663
  92.6613224  89.9933224  44.3611663  93.5653224  89.8153224  44.9441663
  92.6013224  89.2113224  43.6031663  91.4873224  89.7543224  45.3121663
  91.3483224  88.6143224  45.7691663  90.6593224  90.7753224  45.6211663
  89.8903224  90.6253224  46.2421663  90.8153224  91.6813224  45.2291663
  92.9623224  92.5393224  44.6531663  92.0593224  93.3343224  44.8901663
  94.1633224  92.6903224  45.2191663  94.8943224  92.0113224  45.0621663
  94.4373224  93.8543224  46.0821663  93.7173224  93.8553224  46.9001663
  95.7843224  93.7983224  46.7671663  95.9713224  94.7423224  47.2791663
  96.5663224  93.6703224  46.0201663  95.9233224  92.6723224  47.7911663
  95.8543224  91.7093224  47.2851663  95.1103224  92.7363224  48.5141663
  97.4773224  92.7043224  48.7031663  97.1573224  94.1863224  49.7361663
  98.0173224  94.3733224  50.3801663  96.9903224  95.0503224  49.0911663
  96.2733224  94.0173224  50.3521663  94.2813224  95.1783224  45.3691663
  93.7503224  96.1573224  45.9321663  94.6983224  95.2323224  44.1181663
  95.1153224  94.3903224  43.7461663  94.5923224  96.4253224  43.2531663
  95.0953224  97.2573224  43.7481663  95.3453224  96.1253224  41.9231663
  94.7443224  95.4553224  41.3081663  96.2833224  95.6143224  42.1431663
  95.6703224  97.3753224  41.0871663  95.9603224  98.4573224  41.6481663
  95.6313224  97.2253224  39.7391663  95.8333224  98.0033224  39.1431663
  95.4003224  96.3383224  39.3411663  93.1373224  96.8453224  43.0411663
  92.7333224  98.0093224  43.3021663  92.3173224  95.9303224  42.5341663
  92.6343224  94.9993224  42.3031663  90.9163224  96.2833224  42.3051663
  90.8823224  97.1763224  41.6821663  90.1413224  95.2683224  41.4341663
  89.1543224  95.6673224  41.2011663  90.8343224  94.9693224  40.1351663
  90.2453224  94.2503224  39.5651663  90.9403224  95.8883224  39.5601663
  91.8203224  94.5513224  40.3371663  89.8723224  93.9733224  42.1681663
  89.2763224  94.1763224  43.0581663  90.8153224  93.5403224  42.5001663
  89.1703224  92.9963224  41.3501663  89.0043224  92.0883224  41.9301663
  88.2103224  93.4073224  41.0371663  89.7683224  92.7603224  40.4711663
  90.1843224  96.6003224  43.6201663  89.3063224  97.4333224  43.6141663
  90.5743224  95.9703224  44.7211663  91.2893224  95.2593224  44.6641663
  89.9753224  96.2923224  46.0471663  88.8893224  96.2433224  45.9571663
  90.3373224  95.2743224  47.1051663  90.1233224  95.6833224  48.0921663
  91.4073224  95.0683224  47.0611663  89.5843224  93.9383224  46.9641663
  88.8803224  93.6313224  45.9741663  89.7433224  93.1033224  48.0191663
  89.2933224  92.2093224  48.0221663  90.3103224  93.3803224  48.7941663
  90.3173224  97.6763224  46.4991663  89.4433224  98.3803224  46.9911663
  91.5623224  98.1043224  46.3601663  92.2413224  97.4743224  45.9571663
  91.9923224  99.4623224  46.7701663  91.7103224  99.6063224  47.8131663
  93.4953224  99.6193224  46.6361663  93.7853224 100.6243224  46.9431663
  93.9953224  98.8873224  47.2711663  93.7863224  99.4593224  45.5991663
  91.2713224 100.5243224  45.9131663  90.7673224 101.5213224  46.4511663
  91.1923224 100.2873224  44.6111663  91.6423224  99.4813224  44.2021663
  90.4463224 101.1983224  43.7491663  90.8463224 102.2033224  43.8801663
  90.6973224 100.8453224  42.2581663  90.0103224 101.4253224  41.6431663
  90.4803224  99.7883224  42.1101663  92.1433224 101.1353224  41.8191663
  92.8353224 100.7503224  42.5691663  92.5263224 100.3753224  40.5491663
  93.5553224 100.6123224  40.2791663  92.4363224  99.3033224  40.7251663
  91.8623224 100.6673224  39.7361663  92.4193224 102.6503224  41.6491663
  93.4543224 102.7993224  41.3391663  91.7513224 103.0593224  40.8911663
  92.2473224 103.1603224  42.5971663  88.9573224 101.2163224  44.1231663
  88.2863224 102.2793224  44.0021663  88.4203224 100.0903224  44.5621663
  88.9843224  99.2523224  44.5641663  87.0123224 100.0203224  45.0531663
  86.3673224 100.4673224  44.2961663  86.5703224  98.5623224  45.2531663
  85.5413224  98.5403224  45.6111663  86.6363224  98.0283224  44.3051663
  87.2193224  98.0833224  45.9841663  86.8013224 100.8093224  46.3511663
  85.8023224 101.5543224  46.4881663  87.7363224 100.7313224  47.3101663
  88.5253224 100.1123224  47.1911663  87.6343224 101.5343224  48.5381663
  86.6953224 101.2893224  49.0351663  88.7743224 101.2233224  49.5211663
  88.7403224 101.9283224  50.3521663  89.7323224 101.3543224  49.0201663
  88.7093224  99.7773224  50.0951663  89.0793224  99.0723224  49.3491663
  87.6773224  99.5313224  50.3461663  89.5483224  99.5683224  51.3721663
  89.6373224  98.5023224  51.5781663  89.0603224 100.0603224  52.2131663
  90.9003224 100.1053224  51.2841663  91.0633224 101.0313224  51.6561663
  91.9463224  99.4913224  50.7581663  91.8643224  98.2733224  50.2131663
  90.9783224  97.7873224  50.1931663  92.6873224  97.8393224  49.8221663
  93.0983224 100.1293224  50.7411663  93.1653224 101.0623224  51.1241663
  93.9143224  99.6863224  50.3461663  87.6473224 103.0363224  48.1931663
  86.9993224 103.8153224  48.8941663  88.3713224 103.4273224  47.1621663
  88.8713224 102.7263224  46.6341663  88.4743224 104.8323224  46.7591663
  88.5553224 105.4443224  47.6571663  89.7403224 105.0343224  45.8911663
  89.6793224 104.4013224  45.0061663  90.6203224 104.7253224  46.4541663
  89.9813224 106.4233224  45.4241663  90.0563224 107.0793224  46.2911663
  89.1483224 106.7333224  44.7931663  91.2463224 106.5553224  44.6271663
  91.5243224 105.7663224  43.7361663  92.0383224 107.6053224  44.9531663
  92.8983224 107.7553224  44.4631663  91.7643224 108.2313224  45.6841663
  87.2373224 105.3413224  45.9911663  86.8473224 106.4993224  46.2411663
  86.6473224 104.5313224  45.1091663  86.9313224 103.5633224  45.0641663
  85.5903224 105.0143224  44.1981663  85.2723224 106.0033224  44.5301663
  86.1563224 105.1403224  42.7731663  85.3743224 105.4903224  42.1011663
  86.4763224 104.1603224  42.4211663  87.2583224 106.0393224  42.7111663
  87.1213224 106.6773224  41.9561663  84.2923224 104.2173224  44.1131663
  83.2803224 104.7403224  43.5571663  84.2973224 102.9653224  44.5471663
  85.1353224 102.6073224  44.9831663  83.1203224 102.0813224  44.4141663
  82.4923224 102.4613224  43.6091663  83.5383224 100.6663224  43.9731663
  84.0383224 100.1753224  44.8081663  84.2483224 100.7543224  43.1521663
  82.4543224  99.7343224  43.5101663  81.6243224  99.7623224  44.2161663
  81.8463224 100.1993224  42.1241663  81.0653224  99.5033224  41.8181663
  81.4213224 101.1973224  42.2301663  82.6323224 100.2163224  41.3701663
  83.0123224  98.2453224  43.4201663  82.2173224  97.5783224  43.0841663
  83.8403224  98.2093224  42.7111663  83.3613224  97.9273224  44.4031663
  82.2893224 102.0543224  45.6991663  81.0883224 102.2253224  45.6681663
  82.9163224 101.7703224  46.8351663  83.9223224 101.6903224  46.8061663
  82.2133224 101.5693224  48.1231663  81.1403224 101.5553224  47.9331663
  82.5383224 100.1613224  48.7591663  82.0373224 100.0733224  49.7231663
  82.0483224  99.0343224  47.8311663  82.2783224  98.0683224  48.2791663
  80.9723224  99.1213224  47.6901663  82.5483224  99.1143224  46.8661663
  84.0483224  99.9803224  49.0581663  84.4553224 100.9123224  49.4521663
  84.5783224  99.7583224  48.1321663  84.3753224  98.8733224  50.0581663
  85.4543224  98.8223224  50.2041663  83.8903224  99.0883224  51.0111663
  84.0163224  97.9193224  49.6751663  82.4743224 102.6983224  49.1431663
  82.1303224 102.5773224  50.3451663  83.0853224 103.7853224  48.7221663
  83.4113224 103.7523224  47.7671663  83.3203224 105.0153224  49.5271663
  83.6753224 104.7193224  50.5151663  84.3523224 105.9403224  48.8391663
  85.3173224 105.4353224  48.7901663  84.4853224 106.8443224  49.4351663
  83.9553224 106.3343224  47.4671663  83.6813224 105.4553224  46.6311663
  83.9673224 107.6423224  47.1691663  83.7063224 107.9493224  46.2531663
  84.2373224 108.3103224  47.8621663  82.0163224 105.8303224  49.7491663
  81.0173224 105.6573224  49.0691663  82.0653224 106.7303224  50.7301663
  82.8773224 106.7773224  51.3291663  80.9423224 107.6713224  50.9601663
  80.0463224 107.0853224  51.1671663  81.2423224 108.5703224  52.1971663
  80.4113224 109.2573224  52.3571663  81.3703224 107.9433224  53.0801663
  82.1543224 109.1383224  52.0211663  80.6853224 108.5223224  49.7011663
  81.5883224 109.1723224  49.1641663  79.4433224 108.5093224  49.2041663
  78.6953224 108.0583224  49.7121663  79.1463224 109.1553224  47.9031663
  78.0713224 109.0953224  47.7241663  79.3243224 110.6893224  47.9451663
  79.8603224 111.0183224  47.0541663  79.9293224 110.9623224  48.8111663
  77.9893224 111.3633224  48.0191663  77.5263224 111.7003224  49.0931663
  77.3133224 111.4453224  46.8991663  76.4153224 111.8853224  46.8881663
  77.6953224 111.0683224  46.0561663  79.7383224 108.5533224  46.6701663
  79.7573224 109.1683224  45.5951663  80.2343224 107.3463224  46.7761663
  80.2223224 106.8883224  47.6761663  80.8023224 106.6483224  45.6331663
  81.5023224 105.8903224  45.9811663  81.3683224 107.3513224  45.0221663
  79.7523224 105.9683224  44.7451663  78.5573224 106.2203224  44.9051663
  80.1963224 105.0653224  43.8751663  81.1653224 104.7803224  43.9061663
  79.3093224 104.4723224  42.8701663  78.8523224 105.2763224  42.2941663
  80.0843224 103.6513224  41.7881663  80.7493224 102.9403224  42.2781663
  79.1243224 102.8703224  40.8781663  79.6973224 102.3123224  40.1381663
  78.5363224 102.1783224  41.4791663  78.4573224 103.5663224  40.3701663
  81.0213224 104.5523224  40.9641663  81.6573224 103.9333224  40.3301663
  81.6743224 105.1093224  41.6361663  80.3853224 105.6073224  40.0201663
  81.1733224 106.1613224  39.5101663  79.7593224 105.1053224  39.2821663
  79.7773224 106.2973224  40.6031663  78.1723224 103.6563224  43.4961663
  76.9903224 103.9293224  43.2491663  78.4873224 102.6713224  44.3361663
  79.4443224 102.4643224  44.5831663  77.4113224 101.8663224  44.9161663
  76.8453224 101.4103224  44.1051663  78.0173224 100.6823224  45.7341663
  78.8993224 101.0263224  46.2731663  76.9763224 100.1823224  46.7201663
  77.3893224  99.3543224  47.2961663  76.6973224 100.9903224  47.3951663
  76.0943224  99.8423224  46.1771663  78.4633224  99.5823224  44.7381663
  79.1343224 100.0143224  43.9951663  77.5933224  99.1983224  44.2061663
  79.1973224  98.3523224  45.3361663  79.4553224  97.6583224  44.5361663
  80.1073224  98.6803224  45.8391663  78.5463224  97.8533224  46.0521663
  76.4413224 102.7203224  45.7411663  75.2053224 102.5823224  45.6271663
  76.9203224 103.6373224  46.5631663  77.9113224 103.8203224  46.6251663
  76.0003224 104.4053224  47.4011663  75.3663224 103.7073224  47.9481663
  76.7293224 105.2943224  48.4301663  76.0323224 106.0283224  48.8351663
  77.5313224 105.8423224  47.9341663  77.3603224 104.5733224  49.6301663
  78.2073224 103.9833224  49.2821663  76.6273224 103.8893224  50.0561663
  77.8283224 105.5153224  50.7121663  77.6333224 106.7903224  50.6171663
  78.3943224 104.9803224  51.7271663  75.0833224 105.3103224  46.5561663
  73.9583224 105.6013224  46.9651663  75.5623224 105.7873224  45.4231663
  76.4803224 105.5163224  45.1001663  74.7633224 106.7243224  44.6121663
  74.0993224 107.2773224  45.2761663  75.5973224 107.8563224  44.0161663
  74.9553224 108.5083224  43.4241663  76.2593224 108.6773224  45.0841663
  76.8433224 109.4733224  44.6221663  75.4983224 109.1143224  45.7311663
  76.9173224 108.0423224  45.6761663  76.5773224 107.3453224  43.1861663
  77.3143224 106.8883224  43.7131663  73.8783224 106.0063224  43.5821663
  72.9943224 106.6853224  43.0071663  73.9893224 104.6823224  43.4281663
  74.6503224 104.1763224  43.9991663  73.1623224 103.9333224  42.4351663
  72.4543224 104.6273224  41.9811663  74.0593224 103.3693224  41.3011663
  73.4533224 102.7713224  40.6211663  74.7463224 104.5233224  40.4811663
  75.3663224 104.0923224  39.6951663  73.9813224 105.1563224  40.0331663
  75.3683224 105.1213224  41.1461663  75.0323224 102.4853224  41.8091663
  75.7433224 102.9863224  42.3221663  72.3373224 102.8163224  43.0051663
  71.3573224 102.4343224  42.3291663  72.6373224 102.2953224  44.2111663
  73.4143224 102.7093224  44.7061663  71.9073224 101.1793224  44.8291663
  71.2673224 100.7233224  44.0731663  72.8173224 100.0323224  45.3091663
  72.2773224  99.4153224  46.0261663  73.6843224 100.4463224  45.8221663
  73.2963224  99.1593224  44.1961663  74.2503224  99.6123224  43.3391663
  74.7073224 100.5863224  43.5171663  74.6383224  98.8233224  42.2361663
  75.3773224  99.2003224  41.5301663  74.0743224  97.5693224  42.0581663
  74.3873224  96.9433224  41.2231663  73.1483224  97.1203224  42.9001663
  72.7083224  96.1343224  42.7501663  72.7343224  97.8793224  43.9591663
  71.9733224  97.4963224  44.6401663  71.0083224 101.6563224  45.9861663
  71.3083224 102.6193224  46.7241663  69.8863224 100.9493224  46.1541663
  69.7583224 100.1943224  45.4961663  68.8663224 101.1813224  47.1851663
  68.1983224 101.9693224  46.8391663  68.0423224  99.9333224  47.3941663
  68.7143224  99.1093224  47.6331663  67.5283224  99.6973224  46.4641663
  67.0013224 100.0473224  48.5071663  67.4103224 100.6353224  49.3291663
  65.7703224 100.8493224  48.0621663  65.0563224 100.9053224  48.8841663
  66.0753224 101.8563224  47.7781663  65.3043224 100.3563224  47.2101663
  66.6363224  98.6173224  49.0181663  65.8943224  98.6933224  49.8131663
  66.2283224  98.0303224  48.1951663  67.5313224  98.1293224  49.4031663
  69.4053224 101.6643224  48.5601663  68.9293224 102.7133224  49.0711663
  70.3273224 100.9443224  49.2471663  71.0803224  99.7483224  48.8361663
  70.5583224  99.1533224  48.0721663  72.1043224  99.9853224  48.5111663
  71.1293224  98.9733224  50.1321663  70.2083224  98.4033224  50.3251663
  71.9613224  98.2543224  50.1701663  71.3143224 100.0473224  51.1921663
  70.8813224  99.7523224  52.1591663  72.3763224 100.2733224  51.3711663
  70.5923224 101.2973224  50.6501663  69.6353224 101.4193224  51.1791663
  71.4063224 102.5463224  50.8601663  71.5723224 102.9743224  52.0161663
  71.9343224 103.1863224  49.8241663  71.8373224 102.7533224  48.9171663
  72.6363224 104.4623224  49.9321663  73.0843224 104.6943224  48.9651663
  71.6063224 105.5713224  50.2311663  71.0763224 105.3363224  51.1531663
  70.8683224 105.6083224  49.4301663  72.1923224 106.8853224  50.3681663
  73.1533224 106.7833224  50.6031663  73.7513224 104.3563224  50.9911663
  74.5093224 103.3693224  50.9541663  73.7933224 105.2723224  51.9861663
  73.0703224 105.9763224  52.0111663  74.8443224 105.2823224  53.0261663
  75.8173224 105.2873224  52.5341663  74.7163224 106.5613224  53.8841663
  74.9023224 107.4373224  53.2621663  75.4733224 106.5503224  54.6691663
  73.3733224 106.7533224  54.5501663  73.1443224 105.8833224  55.1651663
  72.5993224 106.8513224  53.7881663  73.3423224 108.0213224  55.4541663
  73.5163224 108.9073224  54.8441663  74.1343224 107.9553224  56.2011663
  72.0183224 108.1873224  56.1711663  71.8523224 107.3353224  56.8301663
  71.2103224 108.2163224  55.4411663  72.0023224 109.4913224  57.0061663
  71.1123224 109.5803224  57.4751663  72.7423224 109.4613224  57.6931663
  72.1423224 110.2843224  56.3961663  74.8263224 104.0483224  53.9321663
  75.7703224 103.9003224  54.7631663  73.8033224 103.1903224  53.8921663
  73.0303224 103.4123224  53.2811663  73.7543224 101.9543224  54.6881663
  74.3683224 102.0913224  55.5781663  72.3383224 101.6833224  55.1701663
  72.3333224 100.7953224  55.8021663  71.6943224 101.4793224  54.3131663
  71.7453224 102.8233224  55.9481663  72.3113224 103.2223224  57.1621663
  73.1883224 102.7043224  57.5511663  71.7693224 104.3033224  57.9191663
  72.2313224 104.5933224  58.8631663  70.6593224 104.9643224  57.4351663
  70.1413224 106.0493224  58.2011663  69.1523224 105.9953224  58.1731663
  70.1353224 104.6143224  56.2151663  69.3003224 105.1883224  55.8131663
  70.6583224 103.5353224  55.4891663  70.1873224 103.2623224  54.5451663
  74.3293224 100.7213224  53.9641663  74.3823224  99.6533224  54.5581663
  74.7623224 100.8843224  52.7161663  74.8563224 101.8223224  52.3521663
  75.1133224  99.7243224  51.8391663  74.2323224  99.0883224  51.7371663
  75.5153224 100.1983224  50.4571663  75.9043224  99.3583224  49.8831663
  76.3143224 100.9343224  50.5431663  74.4033224 100.7703224  49.7811663
  74.2813224 101.7133224  50.0841663  76.2463224  98.8763224  52.4381663
  76.1013224  97.6363224  52.6561663  77.4063224  99.4883224  52.7251663
  77.5323224 100.4883224  52.6541663  78.5313224  98.6553224  53.1591663
  78.6313224  97.8193224  52.4651663  79.9103224  99.3843224  53.0731663
  79.9843224 100.0993224  53.8931663  81.0323224  98.3503224  53.1681663
  81.9973224  98.8543224  53.1091663  80.9583224  97.8193224  54.1171663
  80.9433224  97.6403224  52.3461663  79.9833224 100.1033224  51.7351663
  80.9383224 100.6213224  51.6521663  79.8923224  99.3773224  50.9271663
  79.1713224 100.8273224  51.6661663  78.3113224  98.0963224  54.5581663
  78.6533224  96.9283224  54.8491663  77.7183224  98.8593224  55.4911663
  77.4463224  99.8143224  55.3091663  77.4633224  98.2893224  56.7981663
  78.4093224  97.9393224  57.2131663  77.0093224  99.3473224  57.7771663
  77.7693224 100.1253224  57.8501663  76.8993224  98.9043224  58.7671663
  75.7253224 100.0503224  57.4961663  75.0113224  99.3333224  57.0931663
  75.8993224 100.8133224  56.7381663  75.1383224 100.7153224  58.7701663
  74.5083224 100.0643224  59.6521663  75.3473224 101.9163224  58.8891663
  76.5203224  97.0733224  56.7521663  76.6563224  96.1393224  57.5551663
  75.5483224  97.0213224  55.8321663  75.3813224  97.8333224  55.2551663
  74.7123224  95.8103224  55.6361663  74.1393224  95.6353224  56.5461663
  73.6983224  95.9693224  54.4541663  73.3343224  94.9863224  54.1521663
  74.2053224  96.4083224  53.5961663  72.5043224  96.8413224  54.8121663
  72.8393224  97.8643224  54.9821663  72.0493224  96.4753224  55.7321663
  71.2243224  96.8903224  53.5541663  70.6813224  95.2553224  53.7451663
  69.8683224  95.0583224  53.0461663  71.5073224  94.5713224  53.5451663
  70.3263224  95.1063224  54.7651663  75.5773224  94.5913224  55.3831663
  75.2693224  93.4833224  55.8831663  76.6623224  94.7793224  54.6221663
  76.8773224  95.6813224  54.2231663  77.5763224  93.6303224  54.3561663
  76.9823224  92.7933224  53.9861663  78.5443224  93.8973224  53.1961663
  77.9883224  94.2673224  52.3361663  79.0223224  92.9643224  52.8991663
  79.5373224  94.8093224  53.4811663  79.1613224  95.5953224  53.9831663
  78.3173224  93.1433224  55.6211663  78.5703224  91.9563224  55.7561663
  78.5713224  94.0403224  56.5801663  78.3893224  95.0133224  56.3791663
  79.1033224  93.6663224  57.9091663  80.0153224  93.0853224  57.7661663
  79.5493224  94.9203224  58.7041663  78.7323224  95.6403224  58.7361663
  80.3853224  95.3973224  58.1921663  79.9393224  94.5833224  60.0401663
  80.7193224  93.9643224  60.0051663  78.1193224  92.7933224  58.7161663
  78.4913224  91.7583224  59.2971663  76.8403224  93.1733224  58.6681663
  76.5683224  94.0043224  58.1621663  75.8113224  92.3853224  59.3531663
  76.0803224  92.3213224  60.4071663  74.4713224  93.0843224  59.2541663
  73.7133224  92.4913224  59.7661663  74.5383224  94.0673224  59.7201663
  74.1973224  93.1973224  58.2061663  75.7433224  90.9543224  58.7991663
  75.5993224  89.9743224  59.5341663  75.8183224  90.8103224  57.4681663
  75.8733224  91.6493224  56.9081663  75.8233224  89.5113224  56.8041663
  74.9553224  88.9453224  57.1451663  75.6173224  89.6633224  55.3051663
  76.3413224  90.3813224  54.9191663  75.8703224  88.3193224  54.5401663
  75.7123224  88.4733224  53.4721663  76.8953224  87.9903224  54.7111663
  75.1793224  87.5583224  54.9021663  74.1693224  90.1743224  55.0381663
  74.0153224  90.2863224  53.9651663  73.4513224  89.4563224  55.4351663
  74.0273224  91.1383224  55.5271663  77.0893224  88.6933224  57.1391663
  77.0143224  87.4663224  57.3271663  78.2333224  89.3883224  57.2591663
  78.2133224  90.3873224  57.1151663  79.4923224  88.7463224  57.5891663
  79.7023224  87.9883224  56.8341663  80.6523224  89.7493224  57.5541663
  80.4503224  90.5633224  58.2501663  80.7283224  90.1833224  56.5561663
  81.9893224  89.1813224  57.9011663  82.6583224  88.2923224  57.0611663
  82.1883224  87.9583224  56.1361663  83.9503224  87.8023224  57.3771663
  84.4503224  87.1083224  56.7021663  84.5713224  88.2293224  58.5201663
  85.8453224  87.7633224  58.8441663  86.2593224  87.3733224  58.0271663
  83.8993224  89.0943224  59.3751663  84.3593224  89.3973224  60.3161663
  82.6403224  89.5723224  59.0311663  82.1743224  90.2873224  59.7091663
  79.4383224  88.0223224  58.9441663  80.1513224  87.0273224  59.1561663
  78.6153224  88.5063224  59.8921663  78.1433224  89.3863224  59.7401663
  78.3843224  87.7683224  61.1671663  79.2863224  87.8383224  61.7761663
  77.2163224  88.3713224  61.9701663  77.0233224  87.7563224  62.8491663
  76.3123224  88.3623224  61.3601663  77.4443224  89.7813224  62.4351663
  77.6503224  90.4183224  61.5761663  78.3073224  89.8093224  63.1021663
  76.1723224  90.2893224  63.1851663  75.9323224  89.6053224  63.9991663
  75.3283224  90.3143224  62.4941663  76.3723224  91.6843224  63.7641663
  76.6503224  92.3733224  62.9661663  77.1813224  91.6623224  64.4931663
  75.0933224  92.1883224  64.4421663  75.2523224  93.1133224  64.8161663
  74.3443224  92.2233224  63.7651663  74.8393224  91.5613224  65.1921663
  78.1063224  86.3093224  60.9711663  78.4833224  85.5093224  61.9011663
  77.5003224  85.9133224  59.8541663  77.2573224  86.6123224  59.1671663
  77.1753224  84.5083224  59.5891663  77.5223224  83.9083224  60.4321663
  75.6623224  84.3363224  59.6401663  75.3913224  83.3703224  59.2151663
  75.1873224  85.1063224  59.0311663  75.1553224  84.4283224  61.0751663
  74.6423224  85.4613224  61.4811663  75.4273224  83.4093224  61.8611663
  75.1193224  83.4153224  62.8131663  75.9423224  82.6283224  61.5071663
  77.8763224  83.9033224  58.3541663  77.5163224  82.8783224  57.7571663
  79.0013224  84.5103224  58.0251663  79.2573224  85.3813224  58.4691663
  79.8863224  83.9393224  57.0241663  79.2793224  83.5493224  56.2071663
  80.8133224  85.0383224  56.4931663  81.3763224  85.4703224  57.3201663
  80.2163224  85.8363224  56.0511663  81.8263224  84.5953224  55.4401663
  81.6793224  84.6223224  54.0361663  80.7913224  84.9673224  53.5091663
  82.8283224  84.1453224  53.4121663  82.9523224  84.0303224  52.4161663
  83.7533224  83.8623224  54.3961663  85.0573224  83.4273224  54.2671663
  85.5193224  83.2613224  53.2931663  85.7663224  83.2083224  55.4221663
  86.7833224  82.8193224  55.3611663  85.2403224  83.4623224  56.6801663
  85.8403224  83.3053224  57.5771663  83.9303224  83.9243224  56.8341663
  83.5213224  84.1163224  57.8251663  83.1673224  84.1333224  55.6741663
  80.6993224  82.7953224  57.6181663  81.2763224  82.9453224  58.7061663
  80.7633224  81.6653224  56.9001663  80.3393224  81.6803224  55.9841663
  81.4133224  80.4203224  57.3751663  81.9733224  80.6473224  58.2831663
  80.3803224  79.3213224  57.7271663  79.8213224  79.0603224  56.8281663
  81.0923224  78.0023224  58.1711663  80.3433224  77.2473224  58.4121663
  81.7243224  77.6393224  57.3611663  81.7053224  78.1983224  59.0511663
  79.4563224  79.8053224  58.7481663  78.7353224  79.0243224  58.9861663
  80.0133224  80.0713224  59.6471663  78.9293224  80.6833224  58.3751663
  82.3533224  79.9163224  56.2731663  81.9353224  79.5723224  55.1851663
  83.6353224  79.8533224  56.5471663  83.9613224  80.0533224  57.4821663
  84.5983224  79.4983224  55.5241663  84.5473224  80.2423224  54.7271663
  86.0153224  79.4493224  56.1731663  86.0173224  78.7253224  56.9871663
  86.2533224  80.4223224  56.6001663  87.1563224  79.0713224  55.2081663
  87.5793224  79.9293224  54.2081663  87.0893224  80.8963224  54.0931663
  88.6323224  79.5503224  53.3531663  88.9933224  80.2433224  52.5941663
  89.2103224  78.3063224  53.4701663  90.0163224  78.0133224  52.7991663
  88.7623224  77.4473224  54.4311663  89.1783224  76.4423224  54.4991663
  87.7863224  77.8373224  55.3181663  87.4353224  77.1423224  56.0821663
  84.3353224  78.1493224  54.8781663  84.3963224  78.0163224  53.6491663
  84.0483224  77.1413224  55.7001663  83.9753224  77.2953224  56.6961663
  83.8333224  75.7873224  55.1661663  84.6263224  75.5673224  54.4511663
  84.0073224  74.7503224  56.3031663  83.6883224  73.7693224  55.9521663
  85.4913224  74.6793224  56.7421663  85.5993224  73.9463224  57.5411663
  86.1083224  74.3843224  55.8931663  85.8113224  75.6563224  57.1011663
  83.2013224  75.1323224  57.4291663  83.7723224  75.2193224  58.2521663
  82.5123224  75.6033224  54.3971663  82.3923224  74.6723224  53.5781663
  81.5673224  76.5393224  54.6011663  81.7093224  77.2433224  55.3111663
  80.3453224  76.5603224  53.8211663  80.0443224  75.5313224  53.6211663
  79.2093224  77.2333224  54.6211663  78.3733224  77.4493224  53.9551663
  79.5613224  78.1833224  55.0231663  78.7043224  76.3693224  55.7761663
  78.9493224  75.1353224  55.7631663  78.0503224  76.9783224  56.6591663
  80.5073224  77.2503224  52.4441663  79.5763224  77.2493224  51.6371663
  81.6783224  77.7933224  52.1191663  82.3853224  77.8543224  52.8381663
  81.9773224  78.2963224  50.7861663  81.0883224  78.7933224  50.3961663
  83.1333224  79.3343224  50.8331663  83.2593224  79.7833224  49.8481663
  84.0663224  78.8293224  51.0841663  82.9403224  80.4573224  51.8261663
  83.7333224  81.1923224  51.6871663  82.9843224  80.0473224  52.8351663
  81.6003224  81.1653224  51.6571663  81.3183224  81.7253224  50.6061663
  80.7723224  81.1393224  52.7021663  79.8793224  81.5883224  52.6451663
  81.0423224  80.6713224  53.5431663  82.3363224  77.1273224  49.8141663
  82.3613224  77.3613224  48.5821663  82.6783224  75.9373224  50.3391663
  82.7973224  75.8363224  51.3371663  82.8843224  74.7623224  49.4671663
  83.6643224  75.0083224  48.7461663  83.2553224  73.5133224  50.3241663
  83.4043224  72.6543224  49.6701663  84.1733224  73.7113224  50.8781663
  82.4493224  73.3003224  51.0241663  81.5723224  74.4753224  48.7311663
  80.4983224  74.4853224  49.3641663  81.6233224  74.2073224  47.4351663
  82.4933224  74.1053224  46.9331663  80.3613224  74.0553224  46.7121663
  79.7933224  74.9793224  46.8111663  80.6283224  73.9313224  45.2181663
  81.2763224  73.0703224  45.0511663  81.1533224  74.8253224  44.8841663
  79.4103224  73.7613224  44.3271663  78.8233224  72.9093224  44.6711663
  78.4133224  74.9523224  44.4231663  77.5643224  74.7703224  43.7631663
  78.0593224  75.0493224  45.4501663  78.9153224  75.8713224  44.1231663
  79.8413224  73.5183224  42.8771663  78.9573224  73.3973224  42.2501663
  80.4243224  74.3693224  42.5231663  80.4493224  72.6153224  42.8251663
  79.4403224  72.9353224  47.2351663  78.2523224  73.2253224  47.4531663
  79.9543224  71.7193224  47.5371663  81.2863224  71.1473224  47.2941663
  81.6913224  71.4693224  46.3231663  81.9803224  71.4033224  48.1081663
  81.0663224  69.6923224  47.2761663  80.8673224  69.3253224  46.2581663
  81.9463224  69.1453224  47.6441663  79.8783224  69.4273224  48.1671663
  79.2973224  68.5453224  47.8591663  80.1563224  69.2763224  49.2211663
  79.0163224  70.7053224  48.0241663  78.2423224  70.5333224  47.2621663
  78.3843224  71.1173224  49.3361663  77.1723224  70.9343224  49.5061663
  79.1393224  71.6623224  50.2901663  80.1323224  71.7423224  50.1231663
  78.5873224  72.1443224  51.5591663  78.0643224  71.3163224  52.0371663
  79.6803224  72.5993224  52.5681663  79.2063224  72.9443224  53.4871663
  80.3393224  71.7613224  52.7931663  80.2613224  73.4103224  52.1331663
  77.5593224  73.2733224  51.3601663  76.5263224  73.2723224  52.0041663
  77.7953224  74.1763224  50.4151663  78.6513224  74.1163224  49.8821663
  76.8413224  75.2633224  50.1241663  76.6753224  75.8323224  51.0391663
  77.4223224  76.2133224  49.0661663  77.8403224  75.6313224  48.2441663
  78.2363224  76.7913224  49.5041663  76.3733224  77.1933224  48.4931663
  75.8083224  77.9573224  49.3021663  76.1643224  77.2103224  47.2421663
  75.4973224  74.6443224  49.6471663  74.4273224  75.0743224  50.0991663
  75.5723224  73.7053224  48.7041663  76.4743224  73.3903224  48.3751663
  74.3663224  73.1203224  48.1351663  73.7443224  73.9243224  47.7421663
  74.7373224  72.1963224  46.9621663  73.8283224  71.7213224  46.5931663
  75.4043224  71.4183224  47.3301663  75.4353224  72.8513224  45.7401663
  76.3503224  73.3463224  46.0661663  75.9113224  71.7623224  44.7641663
  76.4003224  72.2283224  43.9091663  76.6173224  71.1033224  45.2701663
  75.0553224  71.1823224  44.4201663  74.5643224  73.8843224  45.0601663
  75.1013224  74.3123224  44.2121663  73.6473224  73.4123224  44.7081663
  74.3163224  74.6743224  45.7691663  73.5763224  72.3693224  49.1991663
  72.3643224  72.4693224  49.2641663  74.2623224  71.6253224  50.0441663
  75.2643224  71.5643224  49.9321663  73.6083224  70.8743224  51.1561663
  72.8023224  70.2713224  50.7391663  74.5833224  69.8853224  51.8231663
  75.5183224  70.3953224  52.0521663  73.9783224  69.3243224  53.1451663
  74.6823224  68.6273224  53.6001663  73.7843224  70.1453224  53.8341663
  73.0443224  68.8063224  52.9271663  74.9173224  68.7403224  50.8671663
  75.0613224  69.1363224  49.8611663  74.0793224  68.0443224  50.8261663
  76.2333224  67.9273224  51.2841663  76.4123224  67.1293224  50.5631663
  77.0893224  68.6023224  51.2981663  76.0953224  67.4953224  52.2741663
  72.9933224  71.8563224  52.2101663  71.8103224  71.7143224  52.6211663
  73.7533224  72.8843224  52.6071663  74.6883224  72.9593224  52.2341663
  73.2803224  73.8943224  53.5551663  73.0083224  73.3953224  54.4861663
  74.3893224  74.8963224  53.8861663  74.7063224  75.4023224  52.9741663
  75.2543224  74.3643224  54.2831663  74.0223224  76.0033224  54.9181663
  73.8343224  75.5473224  55.8891663  73.1153224  76.5153224  54.5951663
  75.1803224  76.9903224  55.0131663  75.2113224  77.6033224  54.1121663
  76.1203224  76.4423224  55.0911663  75.1643224  77.9873224  56.2081663
  75.2563224  77.4353224  57.1431663  74.2173224  78.5243224  56.2211663
  76.3413224  79.0523224  56.1401663  76.2833224  79.6703224  56.9371663
  77.2313224  78.5733224  56.1511663  76.2593224  79.5913224  55.2901663
  72.0463224  74.6153224  53.0531663  71.1373224  74.8903224  53.8681663
  71.9743224  74.9383224  51.7661663  72.7543224  74.7333224  51.1581663
  70.7783224  75.5903224  51.2041663  70.4053224  76.3133224  51.9301663
  71.1353224  76.3953224  49.9381663  70.2203224  76.6893224  49.4241663
  71.7063224  75.7663224  49.2561663  71.9403224  77.6393224  50.2201663
  72.9283224  77.3583224  50.5871663  71.4303224  78.2393224  50.9741663
  72.1763224  78.5563224  49.0461663  72.6703224  79.4653224  49.3881663
  71.2223224  78.8133224  48.5881663  73.0153224  77.9643224  48.0091663
  73.9593224  77.7033224  48.2601663  72.7003224  77.7103224  46.7311663
  71.4773224  77.8603224  46.2411663  70.7293224  78.1803224  46.8401663
  71.2943224  77.6543224  45.2701663  73.6513224  77.3213224  45.8841663
  74.6043224  77.2193224  46.2061663  73.4213224  77.1283224  44.9211663
  69.6373224  74.6443224  50.9031663  68.6183224  75.0973224  50.4211663
  69.7873224  73.3453224  51.1241663  70.6543224  72.9723224  51.4831663
  68.6793224  72.4313224  50.8451663  67.7723224  72.8033224  51.3211663
  68.8943224  71.4553224  51.2811663  68.3513224  72.2023224  49.3881663
  67.2143224  71.8903224  49.0551663  69.3463224  72.4063224  48.5011663
  70.2353224  72.7223224  48.8601663  69.1953224  72.1933224  47.0691663
  68.1343224  72.0773224  46.8461663  69.6123224  73.4493224  46.2531663
  69.4153224  73.2663224  45.1961663  68.6843224  74.6243224  46.6261663
  68.9703224  75.5093224  46.0571663  67.6523224  74.3613224  46.3921663
  68.7743224  74.8343224  47.6921663  71.0813224  73.7723224  46.4171663
  71.3273224  74.6563224  45.8291663  71.2963224  73.9643224  47.4681663
  71.6803224  72.9293224  46.0721663  69.9193224  70.9183224  46.5801663
  69.8383224  70.5653224  45.3971663  70.5283224  70.1953224  47.5291663
  70.5313224  70.5683224  48.4671663  71.1783224  68.9093224  47.2711663
  70.5813224  68.3693224  46.5361663  72.6273224  69.0953224  46.7641663
  73.0773224  68.1193224  46.5831663  72.6173224  69.6673224  45.8361663
  73.2093224  69.6293224  47.5141663  71.2163224  68.1473224  48.5721663
  71.1203224  68.7573224  49.6301663  71.3513224  66.8183224  48.4821663
  71.3413224  66.4133224  47.5571663  71.5103224  65.9403224  49.6441663
  71.5903224  66.5593224  50.5371663  70.2743224  65.0023224  49.8631663
  70.4623224  64.3443224  50.7111663  69.0343224  65.8583224  50.1431663
  68.1713224  65.2103224  50.2951663  69.2003224  66.4573224  51.0371663
  68.8473224  66.5173224  49.2951663  70.1023224  64.0613224  48.6711663
  71.0643224  63.6163224  48.4171663  69.7673224  64.6303224  47.8041663
  69.0763224  62.9243224  48.9681663  68.9853224  62.2783224  48.0941663
  69.4213224  62.3363224  49.8191663  68.1053224  63.3613224  49.1981663
  72.7953224  65.1083224  49.4871663  73.2113224  64.8203224  48.3781663
  73.4503224  64.7883224  50.6181663  73.1393224  65.1713224  51.4991663
  74.6083224  63.8943224  50.5981663  75.3643224  64.3223224  49.9401663
  75.1873224  63.7653224  52.0081663  74.5703224  63.0833224  52.5941663
  75.1613224  64.7363224  52.5031663  76.6333224  63.2503224  52.0321663
  77.2873224  63.9793224  51.5541663  76.6953224  62.3133224  51.4771663
  77.1343224  63.0063224  53.4571663  76.4003224  62.4143224  54.0041663
  77.2583224  63.9623224  53.9681663  78.4913224  62.2523224  53.4711663
  78.3963224  61.3223224  52.9101663  78.7593224  62.0053224  54.4971663
  79.5823224  63.0933224  52.8591663  80.4533224  62.5823224  52.8791663
  79.3423224  63.3123224  51.9021663  79.6833224  63.9493224  53.3851663
  74.2013224  62.5293224  50.0501663  73.1743224  61.9843224  50.4441663
  74.9983224  61.9863224  49.1291663  75.8293224  62.4973224  48.8681663
  74.7223224  60.6983224  48.4901663  74.2473224  60.0443224  49.2211663
  73.7763224  60.8903224  47.2931663  74.3013224  61.4153224  46.4951663
  72.9313224  61.5113224  47.5931663  73.2443224  59.5743224  46.7441663
  73.9213224  58.5263224  46.8741663  72.1383224  59.5873224  46.1761663
  76.0523224  60.1043224  48.0351663  76.5543224  60.4383224  46.9631663
  76.6283224  59.1823224  48.8381663  76.1343224  58.6883224  50.1381663
  75.8863224  59.5163224  50.8181663  75.2693224  58.0223224  50.0071663
  77.2883224  57.9073224  50.6991663  77.5993224  58.3363224  51.6631663
  76.9793224  56.8703224  50.8981663  78.4373224  57.9293224  49.7241663
  79.3133224  58.4433224  50.1471663  78.7593224  56.9113224  49.4601663
  77.9503224  58.6673224  48.4701663  78.6193224  59.5123224  48.2521663
  77.9423224  57.7143224  47.2541663  79.0233224  57.3353224  46.7861663
  76.7733224  57.3423224  46.7381663  75.9153224  57.6273224  47.1881663
  76.7063224  56.5273224  45.5301663  77.4983224  55.7783224  45.5731663
  75.3793224  55.7613224  45.4521663  75.2103224  55.2303224  46.3881663
  75.4353224  55.0163224  44.6591663  74.2713224  56.5963224  45.2051663
  74.2263224  57.3123224  45.9021663  76.9183224  57.3173224  44.2481663
  76.9863224  56.7163224  43.1761663  76.9983224  58.6563224  44.3451663
  76.9883224  59.0653224  45.2691663  77.0973224  59.5283224  43.1861663
  76.7923224  58.9663224  42.3031663  76.1583224  60.7673224  43.3231663
  76.2373224  61.3843224  42.4281663  74.7133224  60.3413224  43.4981663
  74.0823224  61.2253224  43.5901663  74.3983224  59.7593224  42.6321663
  74.6193224  59.7333224  44.3971663  76.5313224  61.5673224  44.4621663
  76.4553224  61.0263224  45.3041663  78.5623224  59.9783224  43.0181663
  79.2933224  60.0963224  44.0001663  78.9753224  60.2693224  41.7731663
  78.1373224  60.4323224  40.5651663  77.8623224  59.4623224  40.1251663
  77.2393224  61.0313224  40.7781663  79.0383224  61.1923224  39.5991663
  78.8983224  60.8433224  38.5651663  78.8103224  62.2683224  39.6051663
  80.4413224  60.9623224  40.0321663  80.8913224  60.0913224  39.5331663
  81.0883224  61.8253224  39.8171663  80.3733224  60.7213224  41.5511663
  81.0633224  59.9083224  41.8211663  80.8003224  61.9863224  42.3321663
  81.9293224  62.0603224  42.7991663  79.9153224  62.9573224  42.5181663
  78.9953224  62.9123224  42.1041663  80.2723224  64.1153224  43.3351663
  81.3533224  64.2533224  43.3171663  79.6253224  65.3593224  42.7361663
  79.8593224  66.2253224  43.3551663  78.5413224  65.2413224  42.7351663
  80.0743224  65.6363224  41.3411663  81.3883224  65.9353224  41.0511663
  81.5213224  66.0993224  39.7471663  82.4513224  66.3203224  39.2241663
  80.3383224  65.9493224  39.1841663  80.1353224  66.0483224  38.1991663
  79.4173224  65.6333224  40.1611663  78.3533224  65.4483224  40.0121663
  79.9333224  64.0423224  44.8201663  80.1743224  64.9863224  45.5761663
  79.3353224  62.9243224  45.2461663  79.1453224  62.1713224  44.6001663
  78.9493224  62.7743224  46.6431663  79.7633224  63.1113224  47.2831663
  78.7833224  61.7193224  46.8631663  77.7043224  63.5203224  47.0781663
  77.3903224  63.5113224  48.2901663  77.0493224  64.2133224  46.1281663
  77.4443224  64.2673224  45.2001663  75.7793224  64.8913224  46.4041663
  75.3763224  64.5033224  47.3401663  75.9333224  66.4073224  46.5581663
  74.9573224  66.8423224  46.7761663  76.8023224  66.7673224  47.7381663
  76.8853224  67.8523224  47.8111663  76.3553224  66.3753224  48.6521663
  77.7943224  66.3363224  47.6041663  76.4733224  67.0113224  45.2931663
  76.5763224  68.0883224  45.4191663  77.4483224  66.5773224  45.0701663
  75.7883224  66.8063224  44.4701663  74.8263224  64.6093224  45.2541663
  75.2263224  64.4793224  44.0901663  73.5493224  64.5583224  45.5891663
  73.3363224  64.6343224  46.5731663  72.4673224  64.4033224  44.6451663
  72.8903224  64.1533224  43.6721663  71.5573224  63.2633224  45.0881663
  71.3053224  63.3873224  46.1411663  72.0853224  62.3163224  44.9871663
  70.2843224  63.1853224  44.3001663  70.4943224  63.3843224  43.2491663
  69.5773224  63.9253224  44.6761663  69.6163224  61.8273224  44.3861663
  69.5883224  61.5013224  45.4251663  70.1803224  61.1063224  43.7951663
  68.2593224  61.9133224  43.8721663  68.1393224  61.9783224  42.8701663
  67.1513224  61.9143224  44.6141663  67.2093224  61.8213224  45.9461663
  68.1043224  61.7483224  46.4091663  66.3583224  61.8243224  46.4901663
  65.9663224  61.9983224  44.0101663  65.9163224  62.0603224  43.0021663
  65.1193224  62.0003224  44.5591663  71.7243224  65.7453224  44.5951663
  71.2093224  66.2113224  45.6171663  71.6633224  66.3493224  43.4111663
  72.1203224  65.9203224  42.6191663  70.9493224  67.6233224  43.2231663
  71.2533224  68.3093224  44.0131663  71.2823224  68.3043224  41.8641663
  70.6213224  69.1613224  41.7341663  71.0843224  67.5943224  41.0621663
  72.7273224  68.8243224  41.6461663  73.4113224  67.9783224  41.5691663
  72.8613224  69.5323224  40.2911663  73.8843224  69.8863224  40.1651663
  72.6183224  68.8343224  39.4901663  72.1773224  70.3793224  40.2541663
  73.2453224  69.6973224  42.7331663  74.2613224  70.0113224  42.4941663
  72.6073224  70.5753224  42.8301663  73.2473224  69.1453224  43.6731663
  69.4413224  67.3903224  43.3091663  68.9253224  66.3923224  42.7741663
  68.7283224  68.2793224  43.9841663  69.2193224  69.0093224  44.4801663
  67.2733224  68.2413224  44.0351663  66.9533224  67.2013224  43.9911663
  66.7203224  68.7203224  45.3951663  65.6323224  68.6633224  45.3671663
  67.0053224  69.7613224  45.5391663  67.2113224  67.9153224  46.6221663
  68.2953224  68.0003224  46.7031663  66.6793224  68.6013224  47.9131663
  67.0183224  68.0443224  48.7871663  67.0583224  69.6223224  47.9651663
  65.5903224  68.6183224  47.8931663  66.8693224  66.4203224  46.5421663
  67.2423224  65.9133224  47.4331663  65.7883224  66.2973224  46.4801663
  67.3353224  65.9873224  45.6561663  66.6003224  68.9633224  42.8621663
  65.4203224  68.7843224  42.6191663  67.3553224  69.7883224  42.1451663
  68.2663224  70.0103224  42.5211663  66.9463224  70.3803224  40.8661663
  65.9073224  70.1113224  40.6771663  66.9913224  71.9183224  40.8811663
  67.9853224  72.2503224  41.1801663  66.6713224  72.5243224  39.4551663
  66.7113224  73.6123224  39.5051663  67.4063224  72.1663224  38.7351663
  65.6743224  72.2123224  39.1421663  66.0703224  72.4823224  41.9731663
  66.2173224  71.9233224  42.8981663  65.0303224  72.3513224  41.6751663
  66.2803224  73.9833224  42.2961663  65.5853224  74.2883224  43.0791663
  67.3033224  74.1423224  42.6381663  66.1003224  74.5763224  41.4011663
  67.9273224  69.7583224  39.8901663  69.1043224  70.1603224  39.9201663
  67.5123224  68.7463224  39.1091663  66.5353224  68.4983224  39.0391663
  68.5193224  67.9683224  38.3251663  69.2413224  67.5383224  39.0201663
  67.8993224  66.8213224  37.5221663  68.6913224  66.2053224  37.0961663
  67.3203224  67.2293224  36.6931663  66.9773224  65.8323224  38.1501663
  66.0273224  66.3213224  38.3631663  67.4053224  65.5023224  39.0971663
  66.7643224  64.6173224  37.2101663  67.0643224  64.7253224  35.9861663
  66.3203224  63.5533224  37.6901663  69.3003224  68.8553224  37.3311663
  70.5143224  68.7103224  37.1971663  68.5763224  69.7173224  36.6221663
  67.5803224  69.7153224  36.7921663  69.1363224  70.6573224  35.6211663
  70.1343224  70.3163224  35.3461663  68.1683224  70.6913224  34.4161663
  67.2013224  71.0813224  34.7361663  68.0073224  69.6773224  34.0501663
  68.6713224  71.5543224  33.2411663  69.8433224  72.0133224  33.2661663
  67.8323224  71.8213224  32.3371663  69.2223224  72.0833224  36.2731663
  68.4413224  72.9913224  35.9621663  70.1413224  72.2503224  37.2231663
  70.6713224  71.4233224  37.4591663  70.4333224  73.5383224  37.9421663
  69.6193224  74.2363224  37.7451663  70.5583224  73.2463224  39.4581663
  71.3443224  72.5103224  39.6231663  69.6253224  72.8163224  39.8241663
  70.8793224  74.3953224  40.4511663  71.3863224  75.6243224  40.0641663
  71.5573224  75.8353224  39.0081663  71.6833224  76.5973224  40.9951663
  72.0813224  77.5583224  40.6711663  71.5143224  76.3623224  42.3121663
  71.8003224  77.3043224  43.2561663  72.0173224  78.1713224  42.8071663
  71.0373224  75.1563224  42.6981663  70.9053224  74.9633224  43.7631663
  70.7283224  74.2013224  41.7961663  70.3483224  73.2503224  42.1701663
  71.7653224  73.9563224  37.3151663  72.7523224  73.4403224  37.6801663
  71.7783224  74.8413224  36.3171663  70.6193224  75.5283224  35.7161663
  69.6993224  74.9273224  35.7701663  70.4583224  76.5253224  36.1521663
  71.0533224  75.6743224  34.2451663  70.9003224  74.7703224  33.6371663
  70.5653224  76.5023224  33.7101663  72.5603224  75.9593224  34.4061663
  73.1353224  75.7753224  33.4871663  72.7733224  76.9933224  34.7161663
  72.9973224  74.9823224  35.5021663  73.2113224  74.0263224  35.0021663
  74.2373224  75.4083224  36.2681663  75.2943224  74.8123224  36.1171663
  74.0703224  76.3893224  37.1681663  73.1773224  76.8443224  37.2961663
  75.2263224  76.8183224  37.9981663  76.0093224  77.1883224  37.3361663
  74.8313224  77.9893224  38.9301663  73.8473224  77.7983224  39.3581663
  74.7623224  78.9103224  38.3491663  75.8073224  78.2063224  40.0551663
  77.0823224  78.7033224  39.7881663  77.3663224  78.9543224  38.7661663
  78.0383224  78.9003224  40.7981663  79.0243224  79.2913224  40.5471663
  77.7313224  78.5103224  42.1001663  78.6603224  78.6973224  43.1001663
  78.6353224  77.9153224  43.7201663  76.4803224  78.0093224  42.4071663
  76.2313224  77.7403224  43.4341663  75.5143224  77.8443224  41.3741663
  74.5373224  77.4293224  41.6211663  75.8023224  75.6623224  38.7911663
  77.0083224  75.4213224  38.7761663  74.9683224  74.9263224  39.5001663
  73.9803224  75.1203224  39.4241663  75.4173224  73.8493224  40.3841663
  76.2243224  74.2363224  41.0071663  74.2883224  73.3983224  41.3091663
  74.6463224  72.5973224  41.9561663  73.9603224  74.2393224  41.9201663
  73.4523224  73.0363224  40.7131663  75.9543224  72.6873224  39.5821663
  76.9943224  72.1253224  39.9771663  75.2833224  72.2653224  38.4961663
  74.4463224  72.7413224  38.1911663  75.7593224  71.1063224  37.7411663
  75.9153224  70.2863224  38.4421663  74.6683224  70.6953224  36.6991663
  75.0143224  69.8313224  36.1311663  73.7453224  70.4403224  37.2201663
  74.4833224  71.5253224  36.0191663  77.0873224  71.3743224  37.0561663
  77.9873224  70.5283224  37.0341663  77.2303224  72.5653224  36.4571663
  76.4583224  73.2173224  36.4461663  78.4653224  72.9343224  35.8271663
  78.7773224  72.1193224  35.1731663  78.3243224  74.1433224  34.8901663
  79.3083224  74.4333224  34.5191663  77.9223224  74.9903224  35.4461663
  77.4003224  73.8803224  33.6671663  76.7963224  72.7783224  33.5111663
  77.3153224  74.8753224  32.8571663  79.5473224  73.1543224  36.9021663
  80.7233224  72.7563224  36.7391663  79.1663224  73.8273224  37.9551663
  78.2163224  74.1683224  37.9901663  80.0573224  74.0993224  39.0701663
  79.5083224  74.6143224  39.8571663  80.8543224  74.7683224  38.7441663
  80.6843224  72.8553224  39.6561663  81.8793224  72.8693224  40.0121663
  79.9223224  71.7703224  39.8141663  78.9543224  71.8113224  39.5291663
  80.4513224  70.5143224  40.3921663  80.8533224  70.7313224  41.3811663
  79.3353224  69.4873224  40.6351663  79.7893224  68.5053224  40.7701663
  78.6983224  69.4513224  39.7531663  78.4733224  69.8103224  41.8591663
  78.1463224  70.8493224  41.8101663  77.2133224  68.9643224  41.8571663
  76.6113224  69.2063224  42.7331663  76.6383224  69.1703224  40.9541663
  77.4833224  67.9093224  41.8831663  79.2113224  69.6233224  43.2131663
  78.5363224  69.8723224  44.0331663  79.5353224  68.5873224  43.3111663
  80.0813224  70.2793224  43.2471663  81.5593224  69.9613224  39.5101663
  82.4973224  69.3573224  40.0191663  81.4093224  70.1073224  38.1861663
  80.5773224  70.5253224  37.7941663  82.4683224  69.6543224  37.2881663
  82.6543224  68.5963224  37.4781663  82.0613224  69.7153224  35.8131663
  82.8913224  69.3783224  35.1921663  81.8453224  70.7473224  35.5381663
  80.8213224  68.8553224  35.4651663  80.5953224  68.9753224  34.4061663
  79.9673224  69.2203224  36.0351663  81.0103224  67.3673224  35.7691663
  82.1243224  66.8553224  35.5911663  80.0363224  66.7353224  36.2021663
  83.7823224  70.4103224  37.5311663  84.8443224  69.8053224  37.5661663
  83.6963224  71.7313224  37.6161663  82.7943224  72.1723224  37.5081663
  84.8773224  72.5693224  37.8631663  85.6323224  72.3313224  37.1151663
  84.5563224  74.1053224  37.6801663  83.7863224  74.4033224  38.3911663
  85.8463224  74.9103224  37.9361663  85.6423224  75.9733224  37.8131663
  86.1963224  74.7233224  38.9501663  86.6133224  74.6033224  37.2251663
  84.0093224  74.4033224  36.2711663  83.7363224  75.4563224  36.2021663
  83.1043224  73.8213224  36.1021663  84.9123224  74.1313224  35.0371663
  84.3733224  74.3953224  34.1271663  85.8193224  74.7323224  35.1101663
  85.1783224  73.0753224  35.0071663  85.4773224  72.2963224  39.2491663
  86.6863224  72.1313224  39.3621663  84.6073224  72.2293224  40.2751663
  83.6403224  72.4593224  40.0971663  85.0133224  71.8343224  41.6401663
  85.6513224  72.6163224  42.0511663  83.7763224  71.7503224  42.5571663
  83.0303224  71.0993224  42.1031663  83.3293224  72.7393224  42.6571663
  84.0233224  71.2453224  43.9181663  83.9443224  69.9343224  44.3581663
  83.6343224  69.0893224  43.7461663  84.3153224  69.8783224  45.6711663
  84.3873224  69.0383224  46.2271663  84.5813224  71.1323224  46.1451663
  84.9603224  71.5603224  47.4451663  85.0643224  70.8633224  48.2771663
  85.2003224  72.8993224  47.6381663  85.4913224  73.2543224  48.6271663
  85.0733224  73.8213224  46.5701663  85.2803224  74.8813224  46.7211663
  84.6753224  73.3983224  45.2781663  84.5643224  74.1173224  44.4671663
  84.4303224  72.0263224  45.0701663  85.8073224  70.5233224  41.6371663
  86.9103224  70.4763224  42.2241663  85.2963224  69.4853224  40.9881663
  84.4173224  69.5823224  40.5011663  85.9933224  68.1803224  40.9641663
  86.1703224  67.8713224  41.9941663  85.1073224  67.1313224  40.2751663
  85.6243224  66.1723224  40.2601663  84.1703224  67.0293224  40.8231663
  84.8973224  67.4463224  39.2541663  87.3443224  68.2783224  40.2711663
  88.2943224  67.6133224  40.6841663  87.4443224  69.0793224  39.2011663
  86.6363224  69.5963224  38.8841663  88.7173224  69.2213224  38.4751663
  89.0833224  68.2233224  38.2351663  88.5183224  70.0173224  37.1531663
  89.4733224  70.1083224  36.6361663  87.8083224  69.4913224  36.5151663
  88.1333224  71.0103224  37.3811663  89.7483224  69.9183224  39.3541663
  90.9033224  69.4823224  39.3661663  89.3643224  70.9873224  40.0591663
  88.4243224  71.3373224  39.9371663  90.2763224  71.6753224  41.0141663
  91.1643224  71.9993224  40.4721663  89.6713224  73.0103224  41.5981663
  88.7153224  72.7983224  42.0751663  90.6043224  73.6593224  42.6531663
  90.1483224  74.5753224  43.0271663  90.7563224  72.9663224  43.4791663
  91.5653224  73.8933224  42.1941663  89.3213224  74.0043224  40.5171663
  88.8603224  73.4823224  39.6781663  90.2313224  74.4753224  40.1471663
  88.3363224  75.1123224  41.0461663  88.1063224  75.8093224  40.2401663
  87.4153224  74.6443224  41.3951663  88.8033224  75.6513224  41.8691663
  90.6903224  70.7043224  42.1291663  91.8553224  70.6163224  42.4831663
  89.7223224  69.9383224  42.6621663  88.7803224  70.0203224  42.3081663
  90.0003224  68.9823224  43.7501663  90.3993224  69.5343224  44.6021663
  88.6883224  68.3323224  44.2441663  88.1883224  67.8423224  43.4091663
  88.0173224  69.1053224  44.6191663  88.8773224  67.2853224  45.3631663
  89.5043224  67.7033224  46.1501663  89.3743224  66.4033224  44.9571663
  87.5203224  66.8863224  45.9451663  86.8993224  66.4583224  45.1591663
  87.0183224  67.7713224  46.3391663  87.6543224  65.8843224  47.0441663
  88.1893224  66.3323224  47.8821663  88.2303224  65.0303224  46.6891663
  86.2823224  65.4533224  47.4681663  86.3573224  64.7743224  48.2131663
  85.7623224  66.2563224  47.7951663  85.8013224  65.0393224  46.6831663
  91.0493224  67.9553224  43.3091663  92.0053224  67.6913224  44.0591663
  90.9513224  67.3893224  42.1001663  90.1763224  67.6593224  41.5111663
  91.9283224  66.3893224  41.5971663  91.9633224  65.5563224  42.2991663
  91.5313224  65.8533224  40.2171663  91.3973224  66.6873224  39.5281663
  92.5823224  64.9023224  39.6051663  92.2383224  64.5603224  38.6291663
  93.5293224  65.4303224  39.4921663  92.7223224  64.0443224  40.2611663
  90.2903224  65.1813224  40.3341663  89.5383224  65.8393224  40.4671663
  93.3103224  67.0203224  41.5051663  94.3333224  66.4073224  41.8691663
  93.3733224  68.2583224  41.0251663  92.5093224  68.6953224  40.7371663
  94.6213224  69.0013224  40.8991663  95.3043224  68.4263224  40.2741663
  94.3843224  70.3293224  40.1551663  93.4093224  70.7313224  40.4301663
  94.3723224  70.1473224  39.0801663  95.3533224  71.4753224  40.3511663
  95.0223224  72.7453224  40.7501663  94.0163224  73.0763224  41.0021663
  96.1193224  73.5473224  40.7911663  96.1313224  74.5133224  41.0861663
  97.2053224  72.8263224  40.3641663  98.5523224  73.1993224  40.2571663
  98.8963224  74.2043224  40.5021663  99.4483224  72.2663224  39.8341663
 100.4983224  72.5413224  39.7291663  99.0593224  70.9373224  39.5221663
  99.7953224  70.2043224  39.1921663  97.7063224  70.5523224  39.6371663
  97.3943224  69.5363224  39.3951663  96.7573224  71.5073224  40.0761663
  95.2643224  69.2063224  42.2691663  96.4263224  68.8963224  42.4581663
  94.5353224  69.7453224  43.2311663  93.5813224  70.0183224  43.0431663
  95.0873224  69.9563224  44.5721663  95.9573224  70.6083224  44.4891663
  94.0913224  70.7403224  45.4811663  93.1643224  70.1723224  45.5631663
  94.6383224  70.9203224  46.9011663  93.9143224  71.4713224  47.5031663
  94.8133224  69.9433224  47.3501663  95.5743224  71.4763224  46.8621663
  93.7673224  72.1413224  44.8951663  93.0703224  72.6583224  45.5541663
  94.6863224  72.7213224  44.8101663  93.3173224  72.0283224  43.9081663
  95.5413224  68.6163224  45.2231663  96.6133224  68.5213224  45.8511663
  94.7403224  67.5613224  45.0531663  93.8913224  67.6823224  44.5201663
  95.0533224  66.2323224  45.6151663  95.3053224  66.3533224  46.6681663
  93.8673224  65.2763224  45.4791663  94.2043224  64.2533224  45.6431663
  93.4693224  65.3313224  44.4661663  92.7363224  65.5663224  46.4511663
  92.3923224  66.5893224  46.2971663  93.1063224  65.4463224  47.4691663
  91.5273224  64.6723224  46.3161663  90.8673224  64.3893224  47.3131663
  91.2063224  64.2413224  45.0911663  90.4113224  63.6473224  44.9621663
  91.7603224  64.5123224  44.3041663  96.2463224  65.5553224  44.9591663
  96.8693224  64.7143224  45.5911663  96.5573224  65.9143224  43.7141663
  95.9393224  66.5213224  43.1941663  97.7993224  65.4363224  43.0771663
  97.9923224  64.4183224  43.4161663  97.6533224  65.3943224  41.5481663
  97.6143224  66.4113224  41.1581663  96.7143224  64.9063224  41.2851663
  98.7493224  64.6793224  40.8391663  98.8703224  63.6913224  41.2821663
  99.6793224  65.2283224  40.9821663  98.5733224  64.4813224  39.3121663
  97.4643224  64.7993224  38.7691663  99.5703224  63.9433224  38.6901663
  99.0113224  66.2943224  43.4641663 100.1193224  65.7713224  43.5771663
  98.8163224  67.5963224  43.6701663  97.8833224  67.9823224  43.6511663
  99.9573224  68.4903224  43.9281663 100.7773224  68.2043224  43.2691663
  99.5333224  69.9483224  43.6161663  98.7083224  70.2343224  44.2671663
  99.1753224  70.0113224  42.5871663 100.6143224  71.0353224  43.7731663
 101.4873224  71.3333224  42.7351663 101.4223224  70.7873224  41.7941663
 102.4633224  72.3343224  42.8731663 103.1393224  72.5533224  42.0471663
 102.5763224  73.0303224  44.0841663 103.5323224  74.0453224  44.1621663
 103.3013224  74.6403224  44.9251663 101.7393224  72.7223224  45.1371663
 101.8233224  73.2533224  46.0861663 100.7713224  71.7123224  44.9791663
 100.1373224  71.4643224  45.8301663 100.4643224  68.3713224  45.3551663
 101.6533224  68.2543224  45.5821663  99.5583224  68.3963224  46.3271663
  98.5793224  68.4643224  46.0881663  99.9503224  68.3263224  47.7571663
 100.4933224  69.2373224  48.0121663  98.6893224  68.4433224  48.7131663
  97.9073224  67.7743224  48.3521663  99.0433224  67.9713224  50.1641663
  98.1623224  68.0603224  50.8011663  99.3683224  66.9313224  50.1391663
  99.8433224  68.5933224  50.5641663  98.1873224  69.8763224  48.7041663
  97.3203224  69.9623224  49.3591663  98.9763224  70.5403224  49.0571663
  97.9043224  70.1563224  47.6891663 100.8963224  67.1443224  48.1411663
 101.9003224  67.3743224  48.8151663 100.6023224  65.9033224  47.7151663
  99.3343224  65.4253224  47.1171663  98.4563224  65.8603224  47.6161663
  99.3013224  65.6183224  46.0351663  99.3663224  63.9363224  47.3621663
  98.7503224  63.6803224  48.2371663  98.9373224  63.3993224  46.5031663
 100.7153224  63.5273224  47.5741663 100.7843224  62.7273224  48.3261663
 101.1733224  63.1413224  46.6511663 101.4873224  64.7893224  48.0651663
 101.6153224  64.7583224  49.1571663 102.8593224  64.8173224  47.4401663
 103.7413224  64.0553224  47.8791663 103.0693224  65.6943224  46.4511663
 102.2913224  66.2423224  46.1121663 104.3903224  65.8823224  45.8481663
 104.7793224  64.9073224  45.5571663 104.3373224  66.7063224  44.5291663
 105.3553224  66.8463224  44.1651663 103.9143224  67.6853224  44.7481663
 103.5403224  66.1753224  43.3231663 102.4923224  66.0593224  43.6021663
 103.5083224  67.1053224  42.1221663 102.9253224  66.6473224  41.3231663
 103.0503224  68.0523224  42.4071663 104.5243224  67.2833224  41.7731663
 104.1383224  64.8023224  42.9131663 103.5883224  64.4063224  42.0591663
 105.1863224  64.9283224  42.6421663 104.0603224  64.1073224  43.7491663
 105.3533224  66.5243224  46.8791663 106.5903224  66.3733224  46.7701663
 104.7843224  67.1903224  47.8831663 103.7803224  67.1153224  47.9671663
 105.5293224  68.0143224  48.8591663 106.5963224  67.8953224  48.6691663
 105.2253224  69.5343224  48.6351663 105.7623224  70.1253224  49.3761663
 104.1593224  69.7173224  48.7801663 105.6423224  69.9423224  47.2351663
 106.9883224  70.1493224  46.9211663 107.7503224  70.0453224  47.6941663
 107.3603224  70.4943224  45.5981663 108.4093224  70.6563224  45.3521663
 106.3883224  70.5693224  44.5991663 106.6903224  70.8873224  43.2851663
 107.6793224  70.8613224  43.1651663 105.0733224  70.3683224  44.8991663
 104.3143224  70.4613224  44.1221663 104.6993224  70.0433224  46.2071663
 103.6443224  69.8683224  46.4161663 105.3063224  67.5893224  50.3351663
 106.1223224  67.9303224  51.1951663 104.2393224  66.8373224  50.6071663
 103.6553224  66.5623224  49.8311663 103.8803224  66.3973224  51.9671663
 104.7423224  66.5483224  52.6181663 102.7043224  67.1953224  52.5211663
 102.4573224  66.8343224  53.5191663 101.8283224  67.0383224  51.8901663
 102.9633224  68.6903224  52.6091663 102.6903224  69.5293224  51.5381663
 102.2503224  69.1243224  50.6271663 102.9733224  70.9003224  51.6081663
 102.7533224  71.5463224  50.7581663 103.5333224  71.4443224  52.7811663
 103.8173224  72.8063224  52.8731663 104.3603224  72.9643224  53.6921663
 103.8373224  70.6093224  53.8381663 104.3063224  71.0103224  54.7371663
 103.5433224  69.2463224  53.7521663 103.7793224  68.6123224  54.6071663
 103.5333224  64.9163224  51.9551663 102.4963224  64.5413224  51.4271663
 104.4033224  64.0753224  52.5391663 105.2193224  64.4593224  52.9931663
 104.2043224  62.6223224  52.5371663 103.8213224  62.3343224  51.5581663
 105.5593224  61.8973224  52.7901663 105.4013224  60.8193224  52.7871663
 106.2663224  62.1623224  52.0041663 105.9593224  62.2023224  53.7561663
 103.1723224  62.1503224  53.5661663 102.4163224  61.2093224  53.2891663
 103.1433224  62.7703224  54.7171663 103.7953224  63.5353224  54.8161663
 102.2643224  62.4423224  55.8261663 101.4113224  61.8843224  55.4381663
 103.0763224  61.6883224  56.8971663 102.4123224  61.3743224  57.7021663
 103.8193224  62.3573224  57.3281663 103.7843224  60.4903224  56.4081663
 104.4753224  60.7743224  55.6131663 103.0603224  59.7733224  56.0201663
 104.5873224  59.8033224  57.5091663 103.9193224  59.2033224  58.1261663
 105.0743224  60.5563224  58.1281663 105.5903224  58.9483224  56.8991663
 106.1743224  59.3493224  56.1771663 105.8073224  57.6753224  57.2111663
 105.0803224  57.0813224  58.1401663 104.3543224  57.5953224  58.6181663
 105.2503224  56.1133224  58.3721663 106.7533224  57.0173224  56.5781663
 107.3023224  57.4803224  55.8671663 106.9313224  56.0493224  56.8021663
 101.6783224  63.6083224  56.5731663 102.1703224  64.6953224  56.4801663
 100.6563224  63.3773224  57.3741663 100.2643224  62.4473224  57.4081663
 100.0773224  64.4243224  58.2111663  99.5793224  65.1483224  57.5651663
  99.0143224  63.8733224  59.1651663  98.6823224  64.6653224  59.8371663
  99.4503224  63.0843224  59.7791663  97.7933224  63.3063224  58.4591663
  97.4133224  63.7923224  57.3911663  97.1593224  62.3783224  59.0101663
 101.0763224  65.2333224  59.0381663 100.9863224  66.4623224  59.0831663
 102.0313224  64.5693224  59.6721663 102.1113224  63.5683224  59.5661663
 102.9943224  65.2813224  60.5431663 102.4333224  65.8783224  61.2631663
 103.7573224  64.3603224  61.5351663 103.0673224  63.9953224  62.2971663
 104.5323224  64.9353224  62.0431663 104.4363224  63.1233224  60.8751663
 104.6643224  63.1713224  59.6481663 104.7923224  62.1143224  61.6131663
 103.9113224  66.2553224  59.7491663 104.3893224  67.2383224  60.3151663
 104.0783224  66.0113224  58.4431663 103.7203224  65.1483224  58.0591663
 104.7783224  66.9783224  57.5381663 105.7603224  67.1973224  57.9591663
 105.0683224  66.3363224  56.1661663 105.5783224  67.0573224  55.5271663
 104.1273224  66.0763224  55.6801663 105.9323224  65.0723224  56.2481663
 106.9283224  65.0263224  57.0041663 105.6683224  64.0753224  55.5361663
 104.0413224  68.3263224  57.3911663 104.6843224  69.3753224  57.1981663
 102.7153224  68.2943224  57.5281663 102.2833224  67.3873224  57.6341663
 101.8693224  69.4943224  57.5321663 102.2223224  70.1693224  56.7511663
 100.3903224  69.1633224  57.1941663 100.0023224  68.4703224  57.9411663
  99.5463224  70.4203224  57.2081663  98.5133224  70.1673224  56.9691663
  99.5883224  70.8753224  58.1971663  99.9273224  71.1233224  56.4671663
 100.2753224  68.5173224  55.8081663  99.2303224  68.2943224  55.5961663
 100.6613224  69.2033224  55.0541663 100.8543224  67.5933224  55.7881663
 101.9523224  70.2123224  58.8901663 102.1683224  71.4133224  58.9601663
 101.8163224  69.4553224  59.9781663 101.5963224  68.4793224  59.8371663
 101.9693224  69.9653224  61.3521663 101.1803224  70.6943224  61.5411663
 101.7983224  68.7803224  62.3451663 102.5293224  68.0043224  62.1151663
 100.8073224  68.3433224  62.2231663 101.9563224  69.1123224  63.8321663
 101.2503224  69.8953224  64.1071663 102.9673224  69.4773224  64.0181663
 101.6953224  67.8553224  64.7071663 102.2213224  67.0003224  64.2821663
 100.6273224  67.6343224  64.7171663 102.1603224  68.0253224  66.1561663
 101.5213224  68.7493224  66.6611663 103.1813224  68.4053224  66.1681663
 102.1183224  66.7313224  66.9221663 102.4313224  66.8903224  67.8691663
 101.1713224  66.3783224  66.9351663 102.7233224  66.0563224  66.4771663
 103.3193224  70.6913224  61.5581663 103.3883224  71.7383224  62.2141663
 104.3713224  70.1453224  60.9601663 104.2233224  69.3893224  60.3071663
 105.7223224  70.6023224  61.2171663 105.7423224  71.0953224  62.1901663
 106.6783224  69.4243224  61.1871663 107.7053224  69.7893224  61.1941663
 106.5363224  68.8633224  60.2621663 106.4933224  68.4803224  62.3571663
 105.9333224  68.8223224  63.4171663 106.9533224  67.2743224  62.1571663
 106.8743224  66.5833224  62.8761663 107.3843224  67.0423224  61.2861663
 106.2473224  71.6533224  60.2371663 107.4423224  71.9733224  60.3001663
 105.4073224  72.1143224  59.3071663 104.4843224  71.7093224  59.2481663
 105.7803224  73.1853224  58.3721663 106.8423224  73.0913224  58.1441663
 105.0573224  73.0173224  57.0241663 103.9793224  73.0053224  57.1881663
 105.3313224  72.0593224  56.5811663 105.3923224  74.1523224  56.0021663
 105.8173224  75.2553224  56.4191663 105.2083224  73.9043224  54.7771663
 105.4893224  74.5063224  59.0691663 104.3613224  74.9133224  59.1931663
 106.5543224  75.2033224  59.4891663 107.4833224  74.8973224  59.2351663
 106.4013224  76.3873224  60.3001663 105.7153224  76.1603224  61.1181663
 107.7633224  76.7823224  60.8651663 108.4843224  76.8643224  60.0521663
 108.1173224  76.0023224  61.5391663 107.6303224  78.0113224  61.5451663
 108.1393224  78.7213224  61.0591663 105.8023224  77.5803224  59.5501663
 105.0253224  78.3733224  60.1151663 106.1513224  77.7233224  58.2691663
 106.8293224  77.0983224  57.8561663 105.5563224  78.7903224  57.4381663
 105.7163224  79.7473224  57.9361663 106.2643224  78.8913224  56.0781663
 105.6603224  79.4913224  55.3971663 106.3583224  77.8963224  55.6421663
 107.6643224  79.5173224  56.1631663 108.3113224  78.8583224  56.7411663
 107.5943224  80.4673224  56.6911663 108.3393224  79.7823224  54.8011663
 107.7663224  79.5883224  53.7031663 109.5583224  80.1313224  54.8301663
 104.0623224  78.5843224  57.2691663 103.2913224  79.5153224  57.4071663
 103.6643224  77.3583224  56.9311663 104.3673224  76.6523224  56.7641663
 102.2603224  77.0063224  56.7961663 101.8213224  77.6273224  56.0161663
 102.1523224  75.5553224  56.3151663 102.1913224  74.8973224  57.1831663
 103.0093224  75.3353224  55.6801663 101.0213224  74.9693224  55.5291663
 100.0943224  75.0713224  56.0941663 100.7903224  75.7543224  54.2051663
  99.9623224  75.3053224  53.6561663 100.5513224  76.7933224  54.4351663
 101.6933224  75.7143224  53.5971663 101.2863224  73.4633224  55.2521663
 100.4563224  73.0473224  54.6801663 102.2103224  73.3553224  54.6831663
 101.3783224  72.9303224  56.1981663 101.5003224  77.2663224  58.1111663
 100.3993224  77.8553224  58.1131663 102.0563224  76.8343224  59.2461663
 102.9503224  76.3643224  59.2441663 101.3593224  77.0433224  60.5251663
 100.3593224  76.6173224  60.4471663 102.0333224  76.2923224  61.6901663
 101.5493224  76.5663224  62.6281663 103.0783224  76.5933224  61.7611663
 101.9863224  74.7553224  61.5581663 102.4503224  74.3113224  62.4381663
 102.5303224  74.4613224  60.6601663 100.5873224  74.1973224  61.4481663
  99.6743224  74.6533224  62.1261663 100.3983224  73.2543224  60.5371663
  99.4913224  72.8473224  60.4181663 101.1613224  72.9483224  59.9671663
 101.2053224  78.5483224  60.8491663 100.1613224  78.9673224  61.3051663
 102.2503224  79.3493224  60.6281663 103.1203224  78.9543224  60.2991663
 102.1623224  80.8023224  60.8541663 101.7953224  80.9923224  61.8621663
 103.5883224  81.4563224  60.8091663 103.4903224  82.5333224  60.6751663
 104.1403224  81.0683224  59.9521663 104.4193224  81.2113224  62.0531663
 104.8773224  79.9613224  62.4171663 105.5713224  80.0503224  63.5461663
 106.0313224  79.2183224  64.0791663 105.6043224  81.3233224  63.9061663
 106.0833224  81.6973224  64.7131663 104.8773224  82.0633224  63.0011663
 104.7173224  83.1413224  63.0271663 101.1963224  81.5033224  59.9071663
 100.4693224  82.4143224  60.3161663 101.2063224  81.0743224  58.6361663
 101.8973224  80.3813224  58.3841663 100.2803224  81.5553224  57.6191663
 100.4723224  82.6143224  57.4501663 100.5423224  80.7703224  56.3131663
 100.5803224  79.7033224  56.5311663 101.5123224  81.0563224  55.9051663
  99.5523224  80.9453224  55.2191663  99.3363224  82.0453224  54.4421663
  99.8703224  82.9893224  54.5361663  98.3523224  81.7983224  53.5251663
  98.0003224  82.4593224  52.8471663  97.9133224  80.5033224  53.6721663
  96.9253224  79.7733224  52.9671663  96.3403224  80.2183224  52.1621663
  96.7253224  78.4713224  53.3311663  95.9803224  77.8763224  52.8031663
  97.4553224  77.8713224  54.3741663  97.2833224  76.8293224  54.6471663
  98.4223224  78.5883224  55.0951663  98.9683224  78.1183224  55.9121663
  98.6653224  79.9283224  54.7271663  98.8063224  81.4133224  58.0561663
  98.0563224  82.4003224  58.0631663  98.4273224  80.1723224  58.4021663
  99.1293224  79.4463224  58.4351663  97.0373224  79.8383224  58.7311663
  96.3933224  80.2213224  57.9401663  96.8153224  78.3363224  58.7291663
  97.3213224  77.8923224  59.5861663  97.2553224  77.9043224  57.8301663
  95.3603224  77.9963224  58.7821663  94.6873224  77.3173224  59.7861663
  95.1533224  76.9013224  60.6771663  93.3343224  77.2643224  59.4541663
  92.6073224  76.8413224  60.0131663  93.1283224  77.8723224  58.2481663
  91.9283224  78.0853224  57.4851663  90.9523224  77.7443224  57.8321663
  92.0363224  78.7333224  56.3021663  91.1503224  78.8643224  55.6811663
  93.2463224  79.2403224  55.8471663  93.3003224  79.7993224  54.9121663
  94.4363224  79.0373224  56.5941663  95.3953224  79.3983224  56.2221663
  94.3753224  78.3753224  57.8111663  96.6183224  80.4883224  60.0611663
  95.5243224  81.0393224  60.1581663  97.4993224  80.4773224  61.0671663
  98.3803224  79.9943224  60.9681663  97.2003224  81.1633224  62.3241663
  96.3163224  80.7033224  62.7671663  98.3353224  80.9993224  63.3281663
  99.2303224  81.4943224  62.9501663  98.5703224  79.9403224  63.4421663
  98.0093224  81.5743224  64.7061663  97.0693224  81.1543224  65.0621663
  97.8983224  82.6573224  64.6321663  99.1173224  81.2543224  65.7261663
  99.9303224  81.9723224  65.6171663  99.5103224  80.2543224  65.5351663
  98.5823224  81.3183224  67.1571663  99.1863224  80.6783224  67.8001663
  97.5573224  80.9523224  67.1781663  98.6203224  82.7223224  67.6771663
  98.2633224  82.7413224  68.6221663  99.5733224  83.0593224  67.6701663
  98.0503224  83.3143224  67.0901663  96.8763224  82.6713224  62.0801663
  95.9353224  83.2403224  62.6171663  97.6963224  83.3253224  61.2831663
  98.4733224  82.8483224  60.8481663  97.4953224  84.7513224  61.0161663
  97.3203224  85.2593224  61.9651663  98.7633224  85.3513224  60.3881663
  98.8423224  85.0293224  59.3501663  99.6423224  84.9783224  60.9151663
  98.7473224  86.8843224  60.4461663  98.7163224  87.1973224  61.4891663
  97.8423224  87.2463224  59.9591663  99.9433224  87.5343224  59.7771663
  99.9133224  87.6223224  58.5451663 100.8753224  87.9453224  60.5091663
  96.2813224  85.0663224  60.1351663  95.5473224  86.0233224  60.3571663
  96.0433224  84.2183224  59.1391663  96.6493224  83.4203224  59.0121663
  94.9313224  84.4123224  58.2291663  95.0503224  85.3853224  57.7521663
  94.9303224  83.3243224  57.1191663  94.0873224  83.4903224  56.4481663
  95.8603224  83.3803224  56.5541663  94.8423224  82.3393224  57.5751663
  93.6463224  84.3893224  59.0671663  92.7493224  85.2483224  58.8351663
  93.5603224  83.4673224  60.0151663  94.3363224  82.8383224  60.1661663
  92.3643224  83.3383224  60.8511663  91.4853224  83.4763224  60.2211663
  92.2423224  81.9093224  61.4681663  93.1343224  81.7013224  62.0591663
  91.0813224  81.8583224  62.5311663  91.0143224  80.8533224  62.9491663
  91.2883224  82.5693224  63.3301663  90.1373224  82.1143224  62.0511663
  92.1143224  80.8793224  60.3341663  92.0293224  79.8793224  60.7591663
  91.2263224  81.0993224  59.7411663  92.9973224  80.9283224  59.6961663
  92.3143224  84.4033224  61.9761663  91.3243224  85.0933224  62.1831663
  93.3813224  84.4953224  62.7471663  94.2303224  84.0063224  62.5021663
  93.3503224  85.3083224  63.9711663  92.3833224  85.1673224  64.4561663
  94.4173224  84.8073224  64.9661663  94.4303224  85.4553224  65.8421663
  95.4023224  84.8633224  64.5021663  94.1733224  83.3433224  65.4361663
  94.2723224  82.6773224  64.5801663  93.1543224  83.2583224  65.8121663
  95.1423224  82.8853224  66.5401663  95.9593224  83.7073224  67.0231663
  95.0453224  81.7003224  66.9301663  93.4893224  86.8183224  63.7511663
  93.1103224  87.6143224  64.6111663  94.1023224  87.2183224  62.6271663
  94.4963224  86.5043224  62.0311663  94.2243224  88.6293224  62.2311663
  93.8633224  89.2513224  63.0511663  95.6743224  89.0153224  61.9581663
  95.7223224  90.0643224  61.6651663  96.0573224  88.4253224  61.1251663
  96.6653224  88.8343224  63.1211663  97.6133224  89.3093224  62.8691663
  96.8443224  87.7713224  63.2851663  96.1923224  89.4333224  64.4601663
  95.2693224  88.9443224  64.7711663  95.9943224  90.4983224  64.3331663
  97.2463224  89.2513224  65.5641663  98.0423224  89.9843224  65.4321663
  97.6833224  88.2563224  65.4891663  96.7583224  89.4003224  66.9901663
  97.5303224  89.2613224  67.6271663  96.3763224  90.3263224  67.1211663
  96.0423224  88.7123224  67.1751663  93.3793224  88.9493224  61.0071663
  92.4863224  89.8463224  61.0781663  93.5373224  88.2043224  59.8921663
  94.1143224  87.3753224  59.9161663  92.8783224  88.5823224  58.6321663
  93.2123224  87.9203224  57.8341663  93.1753224  89.5943224  58.3551663
  91.3693224  88.5203224  58.7231663  90.6603224  89.4023224  58.2241663
  90.8723224  87.4083224  59.2621663  91.5233224  86.6603224  59.4551663
  89.4363224  87.2193224  59.5861663  88.8573224  88.0413224  59.1651663
  88.9173224  85.9113224  58.9261663  88.0113224  85.5823224  59.4341663
  89.6633224  85.1243224  59.0431663  88.6063224  86.0453224  57.4601663
  87.4373224  86.6113224  57.0081663  87.4163224  86.6013224  55.6831663
  86.6193224  86.9983224  55.0551663  88.5233224  86.0303224  55.2431663
  88.7603224  85.8683224  54.2741663  89.3003224  85.6933224  56.3371663
  90.2753224  85.2063224  56.3131663  89.2283224  87.2103224  61.0931663
  88.3733224  86.4433224  61.6191663  89.9753224  88.0463224  61.7881663
  90.5023224  88.7523224  61.2941663  90.0633224  87.9813224  63.2591663
  90.8103224  88.6923224  63.6101663  90.3983224  86.9883224  63.5601663
  88.7843224  88.2673224  64.0341663  88.6613224  87.8333224  65.1941663
  87.8233224  88.9853224  63.4881663  87.9263224  89.3943224  62.5701663
  86.5893224  89.1933224  64.2201663  86.8373224  89.5143224  65.2321663
  85.7553224  90.2933224  63.5701663  84.8303224  90.4293224  64.1321663
  85.4823224  89.9933224  62.5581663  86.4613224  91.6163224  63.4961663
  87.2353224  91.9323224  64.4411663  86.2063224  92.4163224  62.5611663
  85.7743224  87.9033224  64.3211663  84.8213224  87.8623224  65.1341663
  86.1263224  86.8523224  63.5651663  86.8963224  87.0033224  62.9291663
  85.4793224  85.5343224  63.6051663  84.6043224  85.5983224  64.2501663
  85.0123224  85.0963224  62.2041663  84.6163224  84.0833224  62.2711663
  85.8743224  85.0833224  61.5391663  83.9273224  85.9883224  61.5571663
  84.3373224  86.9803224  61.3671663  83.5823224  85.4173224  60.1691663
  82.8173224  86.0373224  59.7001663  84.4763224  85.4123224  59.5451663
  83.2083224  84.4003224  60.2771663  82.7043224  86.1273224  62.4841663
  81.9553224  86.7603224  62.0061663  82.2783224  85.1423224  62.6751663
  83.0123224  86.5783224  63.4271663  86.4373224  84.4613224  64.1861663
  86.1693224  83.2403224  64.0661663  87.5223224  84.8823224  64.8601663
  87.6863224  85.8713224  64.9841663  88.4903224  83.9123224  65.4291663
  88.8393224  83.2613224  64.6271663  89.7863224  84.5873224  65.9761663
  90.2413224  85.1913224  65.1911663  90.5073224  83.8183224  66.2561663
  89.6083224  85.4943224  67.1901663  89.2753224  84.9013224  68.0411663
  88.8493224  86.2473224  66.9741663  90.9293224  86.1853224  67.5341663
  91.3603224  86.6173224  66.6311663  91.6303224  85.4523224  67.9351663
  90.8563224  87.3323224  68.5721663  90.5453224  88.2523224  68.0771663
  91.8423224  87.4943224  69.0041663  89.9303224  87.1913224  69.7501663
  89.9953224  88.0153224  70.3311663  88.9803224  87.0853224  69.4221663
  90.1923224  86.3783224  70.2891663  87.8533224  83.0273224  66.4931663
  88.3323224  81.9383224  66.6781663  86.8093224  83.5063224  67.1891663
  86.4673224  84.4293224  66.9621663  86.1303224  82.7173224  68.2941663
  86.9003224  82.2903224  68.9381663  85.2993224  83.6553224  69.2501663
  85.9793224  84.2973224  69.8111663  84.7533224  83.0473224  69.9721663
  84.2563224  84.5843224  68.5241663  84.2843224  84.7533224  67.2741663
  83.4063224  85.1893224  69.2621663  85.2673224  81.5323224  67.7541663
  84.7743224  80.7083224  68.5561663  85.1073224  81.4053224  66.4311663
  85.6233224  82.0153224  65.8141663  84.1903224  80.3903224  65.8461663
  83.3153224  80.3023224  66.4911663  83.6773224  80.8203224  64.4711663
  82.9603224  80.0853224  64.1041663  84.5073224  80.8483224  63.7651663
  83.0053224  82.1863224  64.4761663  82.6953224  82.4423224  63.4641663
  83.7143224  82.9393224  64.8221663  81.7473224  82.3193224  65.3711663
  82.0463224  82.3363224  66.4191663  81.0943224  81.4603224  65.2111663
  80.9853224  83.6353224  65.0201663  80.6583224  83.6003224  63.9811663
  81.6553224  84.4853224  65.1381663  79.7823224  83.8603224  65.8831663
  79.3293224  84.7223224  65.6131663  79.1373224  83.0913224  65.7691663
  80.0673224  83.9193224  66.8501663  84.7613224  78.9753224  65.7401663
  85.9403224  78.7643224  65.4071663  83.9143224  77.9643224  66.0481663
  82.4623224  78.0073224  66.2931663  82.2123224  78.5633224  67.2091663
  81.9163224  78.4163224  65.4301663  82.1053224  76.5583224  66.4721663
  81.2993224  76.4253224  67.2091663  81.7553224  76.1053224  65.5331663
  83.3063224  75.9013224  66.9241663  83.4513224  75.9903224  68.0111663
  83.3133224  74.8273224  66.6861663  84.4473224  76.6113224  66.1831663
  85.3813224  76.6463224  66.7621663  84.7333224  75.8873224  64.8541663
  85.3533224  74.8463224  64.8541663  84.3093224  76.4553224  63.7121663
  83.9733224  77.4073224  63.7491663  84.3173224  75.7393224  62.4061663
  84.2123224  74.6713224  62.5961663  83.0903224  76.1403224  61.5571663
  82.2133224  75.5963224  61.9061663  83.2583224  75.8573224  60.5181663
  82.7243224  77.6033224  61.5561663  81.6143224  78.1573224  62.1421663
  80.8603224  77.6023224  62.6961663  81.5803224  79.4983224  61.9381663
  80.8603224  80.1253224  62.2661663  82.6903224  79.8723224  61.2071663
  83.0713224  81.1343224  60.7271663  82.4723224  82.0273224  60.9061663
  84.2383224  81.2003224  60.0191663  84.6033224  82.1693224  59.6771663
  84.9983224  80.0753224  59.7051663  85.8963224  80.1623224  59.0931663
  84.6303224  78.8023224  60.1651663  85.2413224  77.9293224  59.9351663
  83.4453224  78.7003224  60.9361663  85.6073224  75.8663224  61.5431663
  85.7113224  75.2703224  60.4621663  86.5823224  76.6353224  62.0161663
  86.4923224  77.0853224  62.9161663  87.8193224  76.8433224  61.2251663
  87.5383224  77.1533224  60.2191663  88.7113224  77.8693224  61.8931663
  89.7153224  77.8053224  61.4751663  88.7853224  77.6483224  62.9581663
  88.2603224  79.3013224  61.7621663  87.7403224  80.1173224  62.7431663
  87.5773224  79.8213224  63.7781663  87.4543224  81.3693224  62.2231663
  87.0203224  82.1303224  62.7261663  87.8573224  81.4033224  60.9151663
  87.7993224  82.4583224  59.9531663  87.4283224  83.4523224  60.2051663
  88.2343224  82.2023224  58.6531663  88.1973224  82.9993224  57.9101663
  88.7153224  80.9453224  58.2831663  89.0333224  80.7503224  57.2591663
  88.7963224  79.8803224  59.2641663  89.1943224  78.9033224  58.9931663
  88.3563224  80.1193224  60.5811663  88.5983224  75.5303224  61.1671663
  88.8293224  74.8983224  62.2281663  89.0263224  75.0933224  59.9811663
  88.6883224  75.5513224  58.6171663  87.6063224  75.6973224  58.4831663
  89.2403224  76.4623224  58.3431663  89.1493224  74.4113224  57.7611663
  88.3483224  73.6753224  57.5981663  89.4723224  74.7543224  56.7671663
  90.2713224  73.7893224  58.4721663  90.4063224  72.7303224  58.2071663
  91.2293224  74.2943224  58.2781663  89.9033224  73.9163224  59.9541663
  89.3463224  73.0413224  60.3211663  91.1603224  74.1363224  60.7891663
  91.7053224  75.2563224  60.8491663  91.6503224  73.0823224  61.4241663
  91.2063224  72.1783224  61.3481663  92.8583224  73.2203224  62.2541663
  92.8393224  74.2003224  62.7331663  92.8933224  72.1633224  63.3671663
  93.7553224  72.3403224  64.0101663  93.0123224  71.1733224  62.9251663
  91.6683224  72.1403224  64.2321663  91.7763224  71.3703224  64.9951663
  90.7963224  71.9023224  63.6221663  91.4353224  73.4773224  64.9171663
  90.8963224  74.1423224  64.2431663  92.3953224  73.9343224  65.1601663
  90.6143224  73.3083224  66.2181663  91.2803224  73.0343224  67.0361663
  89.8873224  72.5073224  66.0881663  89.9153224  74.6143224  66.5211663
  89.3753224  74.5183224  67.3691663  90.6033224  75.3453224  66.6411663
  89.3003224  74.8533224  65.7561663  94.1943224  73.1763224  61.5301663
  95.1543224  73.6513224  62.0901663  94.2783224  72.6033224  60.3271663
  93.4233224  72.2193224  59.9491663  95.5493224  72.5003224  59.5211663
  95.3123224  72.0473224  58.5591663  96.0673224  73.9033224  59.0791663
  96.8123224  74.2413224  59.7991663  95.2333224  74.6023224  59.0961663
  96.6983224  73.9363224  57.6771663  97.3373224  73.0623224  57.5451663
  95.6083224  73.8183224  56.6331663  96.0533224  73.8413224  55.6381663
  95.0743224  72.8773224  56.7691663  94.9123224  74.6503224  56.7381663
  97.5583224  75.1833224  57.4391663  97.9773224  75.1503224  56.4331663
  96.9423224  76.0763224  57.5461663  98.3673224  75.2113224  58.1691663
  96.7033224  71.6273224  60.0771663  97.8933224  71.9843224  60.0071663
  96.3393224  70.4493224  60.5801663  95.3573224  70.2163224  60.5481663
  97.2823224  69.4913224  61.1681663  98.2773224  69.9373224  61.1621663
  96.8763224  69.1793224  62.6291663  97.6183224  68.5213224  63.0801663
  95.9223224  68.6513224  62.6371663  96.7193224  70.4003224  63.5891663
  96.5773224  70.0343224  64.6061663  95.8533224  70.9843224  63.2781663
  97.9423224  71.3523224  63.6041663  99.0343224  70.9453224  63.9361663
  97.7333224  72.6263224  63.2351663  98.4933224  73.2773224  63.2291663
  96.8183224  72.9253224  62.9661663  97.3583224  68.1773224  60.3501663
  98.0453224  67.2113224  60.7911663  96.6353224  68.1233224  59.2111663
  96.1403224  68.9573224  58.9291663  96.5403224  66.9133224  58.3731663
  97.3753224  66.2563224  58.6181663  95.2023224  66.1743224  58.5931663
  95.1423224  65.3213224  57.9171663  95.0723224  65.6693224  60.0371663
  94.1193224  65.1533224  60.1581663  95.8883224  64.9813224  60.2571663
  95.1163224  66.5143224  60.7231663  94.0833224  67.0213224  58.2571663
  94.1143224  67.8643224  58.8011663  96.6343224  67.2663224  56.8781663
  96.3873224  68.4123224  56.4841663  96.9993224  66.2803224  56.0551663
  97.3503224  65.4293224  56.4721663  96.9133224  66.3783224  54.5871663
  97.5953224  67.1583224  54.2521663  97.3473224  65.0413224  53.9621663
  97.1093224  65.0613224  52.8981663  96.7753224  64.2393224  54.4261663
  98.8263224  64.6893224  54.0971663  99.1663224  64.9253224  55.1061663
  99.0153224  63.1963224  53.9061663 100.0723224  62.9483224  54.0031663
  98.4463224  62.6573224  54.6631663  98.6653224  62.9093224  52.9151663
  99.6083224  65.4953224  53.0931663 100.6683224  65.2543224  53.1791663
  99.2623224  65.2573224  52.0871663  99.4613224  66.5583224  53.2861663
  95.4993224  66.7503224  54.1291663  95.3363224  67.5863224  53.2441663
  94.4823224  66.1813224  54.7641663  94.7123224  65.5783224  55.5411663
  93.0823224  66.3773224  54.4071663  92.9493224  66.0963224  53.3621663
  92.1733224  65.4853224  55.2801663  92.2893224  65.7633224  56.3281663
  92.4813224  64.4443224  55.1811663  90.6993224  65.5343224  54.9761663
  90.5553224  65.3993224  53.9051663  90.3163224  66.5183224  55.2451663
  89.9363224  64.4323224  55.7681663  90.5793224  63.4843224  56.2931663
  88.6893224  64.5163224  55.8541663  92.7273224  67.8493224  54.5891663
  92.1233224  68.4703224  53.6871663  93.1403224  68.4343224  55.7211663
  93.6663224  67.8833224  56.3841663  92.8543224  69.8453224  56.0291663
  91.7823224  70.0123224  55.9211663  93.2353224  70.2243224  57.4741663
  93.4343224  71.2953224  57.5291663  94.1523224  69.7063224  57.7571663
  92.1283224  69.8743224  58.5211663  92.1123224  70.5003224  59.6231663
  91.2793224  68.9973224  58.2381663  93.5943224  70.7953224  55.0431663
  93.0123224  71.8193224  54.6051663  94.8313224  70.4603224  54.6601663
  95.2853224  69.6303224  55.0141663  95.5573224  71.3263224  53.6931663
  95.5523224  72.3473224  54.0721663  97.0493224  70.9553224  53.5951663
  97.1283224  69.9083224  53.3041663  97.5013224  71.0723224  54.5781663
  97.9323224  71.7423224  52.6181663  97.5163224  71.6713224  51.6131663
  97.8593224  73.2523224  52.9271663  98.4903224  73.7983224  52.2261663
  96.8293224  73.5943224  52.8281663  98.2063224  73.4323224  53.9441663
  99.3453224  71.1663224  52.6211663  99.9693224  71.7283224  51.9251663
  99.7653224  71.2383224  53.6241663  99.3123224  70.1203224  52.3161663
  94.8853224  71.3223224  52.3151663  94.7113224  72.3933224  51.7021663
  94.4443224  70.1563224  51.8531663  94.6133224  69.3303224  52.4091663
  93.7303224  70.0263224  50.5811663  94.3743224  70.3983224  49.7831663
  93.4423224  68.5463224  50.2671663  92.9763224  68.0843224  51.1371663
  92.4423224  68.4353224  49.1331663  92.2473224  67.3833224  48.9211663
  91.5123224  68.9253224  49.4191663  92.8473224  68.9143224  48.2421663
  94.7763224  67.7973224  49.9321663  94.5613224  66.7523224  49.7121663
  95.2463224  68.2613224  49.0651663  95.4513224  67.8573224  50.7861663
  92.4573224  70.8393224  50.6521663  92.1513224  71.6053224  49.7361663
  91.7213224  70.7093224  51.7421663  92.0673224  70.1363224  52.4981663
  90.4303224  71.3663224  51.8841663  89.7983224  71.0733224  51.0451663
  89.7573224  70.9413224  53.1731663  90.4613224  71.0363224  54.0001663
  89.4723224  69.8913224  53.1061663  88.5333224  71.7223224  53.5271663
  87.7683224  71.5403224  52.7741663  88.7753224  72.7843224  53.5101663
  87.9683224  71.3683224  54.9121663  88.7323224  71.0153224  55.8561663
  86.7333224  71.4873224  55.0491663  90.5653224  72.9043224  51.8531663
  89.8203224  73.6143224  51.1431663  91.5493224  73.4373224  52.5771663
  92.1833224  72.8323224  53.0791663  91.7323224  74.8933224  52.6601663
  90.7913224  75.3423224  52.9811663  92.7433224  75.2743224  53.7851663
  93.6363224  74.6573224  53.6821663  93.2013224  76.7113224  53.6931663
  93.9033224  76.9213224  54.5001663  93.6913224  76.8763224  52.7341663
  92.3403224  77.3743224  53.7801663  92.1503224  75.0483224  55.1631663
  92.8813224  75.3233224  55.9231663  91.2563224  75.6613224  55.2801663
  91.8863224  73.9973224  55.2771663  92.1233224  75.4553224  51.2801663
  91.5843224  76.4753224  50.8251663  93.0563224  74.8063224  50.5941663
  93.4663224  73.9783224  51.0011663  93.5053224  75.2473224  49.2811663
  93.8153224  76.2893224  49.3541663  94.7343224  74.4653224  48.8111663
  94.9363224  74.6983224  47.7661663  94.5313224  73.3963224  48.8741663
  96.2253224  74.8333224  49.7881663  96.7363224  75.5653224  49.3411663
  92.3993224  75.1633224  48.2221663  92.2403224  76.1043224  47.4151663
  91.6993224  74.0333224  48.1881663  91.9693224  73.2653224  48.7861663
  90.5213224  73.8733224  47.2851663  90.8713224  73.8963224  46.2531663
  89.9293224  72.4763224  47.5281663  89.7273224  72.3643224  48.5931663
  90.6683224  71.7313224  47.2401663  88.6323224  72.1083224  46.7981663
  87.8463224  72.8103224  47.0771663  88.7263224  72.2433224  45.2471663
  87.7713224  71.9663224  44.7991663  88.9633224  73.2743224  44.9851663
  89.5073224  71.5833224  44.8711663  88.2423224  70.6473224  47.2321663
  87.3203224  70.3523224  46.7301663  89.0423224  69.9593224  46.9551663
  88.0943224  70.6153224  48.3121663  89.5043224  75.0093224  47.4741663
  89.0413224  75.5913224  46.4721663  89.1183224  75.3193224  48.7111663
  89.5043224  74.8213224  49.5001663  88.1343224  76.3813224  48.9481663
  87.2333224  76.1503224  48.3811663  87.6893224  76.4373224  50.4151663
  88.5663224  76.4643224  51.0601663  86.8503224  77.6683224  50.6971663
  86.5533224  77.6733224  51.7451663  87.4333224  78.5623224  50.4811663
  85.9603224  77.6543224  50.0681663  86.8973224  75.1833224  50.8101663
  87.4503224  74.2933224  50.5081663  85.9463224  75.1713224  50.2781663
  86.6063224  75.0883224  52.3611663  86.0433224  74.1783224  52.5711663
  87.5493224  75.0653224  52.9081663  86.0253224  75.9543224  52.6751663
  88.6473224  77.7503224  48.4781663  87.9243224  78.4793224  47.7781663
  89.8973224  78.0663224  48.7851663  90.4573224  77.4293224  49.3341663
  90.4963224  79.3563224  48.3311663  89.9123224  80.1753224  48.7501663
  91.9433224  79.5693224  48.9121663  92.5133224  78.6453224  48.8171663
  92.6633224  80.7033224  48.1241663  93.6643224  80.8483224  48.5291663
  92.7343224  80.4273224  47.0731663  92.0953224  81.6293224  48.2191663
  91.8743224  79.8473224  50.4161663  91.2263224  79.1113224  50.8931663
  91.4313224  80.8283224  50.5851663  93.2093224  79.8253224  51.1871663
  93.0243224  80.0363224  52.2411663  93.6703224  78.8413224  51.0891663
  93.8773224  80.5823224  50.7781663  90.4653224  79.4773224  46.7911663
  90.0173224  80.5153224  46.2331663  90.9113224  78.4103224  46.0981663
  91.2243224  77.5813224  46.5821663  90.9483224  78.4393224  44.6071663
  91.5163224  79.3143224  44.2921663  91.6883224  77.2063224  44.0051663
  91.2763224  76.2913224  44.4311663  91.5223224  77.1553224  42.4641663
  92.0483224  76.2863224  42.0701663  90.4643224  77.0823224  42.2141663
  91.9373224  78.0613224  42.0231663  93.1643224  77.2263224  44.4581663
  93.2123224  77.4003224  45.5331663  93.6833224  78.0513224  43.9711663
  93.9133224  75.9413224  44.1491663  94.9433224  76.0283224  44.4961663
  93.4283224  75.1063224  44.6561663  93.9073224  75.7663224  43.0741663
  89.5483224  78.5403224  44.0151663  89.3053224  79.3013224  43.0411663
  88.5893224  77.8303224  44.6001663  88.8273224  77.2443224  45.3881663
  87.1893224  77.8733224  44.1321663  87.1633224  77.5563224  43.0901663
  86.3433224  76.9103224  44.9711663  86.5623224  77.0603224  46.0281663
  86.6093224  75.8823224  44.7241663  84.8593224  77.0703224  44.7731663
  84.0023224  77.6853224  45.6181663  84.2693224  78.0843224  46.5951663
  82.7523224  77.7243224  45.0511663  81.9263224  78.1213224  45.4751663
  82.8033224  77.1353224  43.8141663  81.7773224  76.9713224  42.8351663
  80.7783224  77.3873224  42.9671663  82.1093224  76.2583224  41.7031663
  81.3383224  76.0363224  40.9651663  83.3573224  75.8103224  41.4531663
  83.5813224  75.2713224  40.5321663  84.4153224  76.0423224  42.4101663
  85.4323224  75.7093224  42.2061663  84.1043224  76.7053224  43.5981663
  86.6263224  79.3003224  44.2271663  86.0433224  79.8323224  43.2421663
  86.8113224  79.9263224  45.3971663  87.3193224  79.4643224  46.1381663
  86.2833224  81.2863224  45.6261663  85.1983224  81.2563224  45.5311663
  86.5433224  81.7873224  47.0971663  87.5913224  81.6333224  47.3541663
  86.2113224  83.3053224  47.2321663  86.3973224  83.6283224  48.2561663
  86.8403224  83.8773224  46.5511663  85.1633224  83.4723224  46.9841663
  85.7553224  80.9883224  48.1551663  85.8413224  79.9223224  47.9441663
  84.6993224  81.2483224  48.0951663  86.2733224  81.2693224  49.5941663
  85.6923224  80.6873224  50.3101663  87.3243224  80.9873224  49.6641663
  86.1663224  82.3293224  49.8181663  86.8433224  82.2763224  44.5681663
  86.1113224  83.0953224  43.9641663  88.1563224  82.2113224  44.3781663
  88.6803224  81.4733224  44.8251663  88.8573224  83.1713224  43.5461663
  88.5033224  84.1683224  43.8071663  90.3783224  83.0713224  43.8471663
  90.9193224  83.7873224  43.2291663  90.5563224  83.2933224  44.8991663
  90.7273224  82.0643224  43.6251663  88.6153224  83.0483224  42.0401663
  88.7203224  84.0333224  41.2961663  88.3033224  81.8203224  41.6011663
  88.1323224  81.0903224  42.2781663  88.2033224  81.5083224  40.1751663
  88.6443224  82.3303224  39.6091663  89.0613224  80.2533224  39.7971663
  90.1053224  80.4383224  40.0461663  89.0063224  80.0853224  38.7221663
  88.6663224  79.0463224  40.4461663  88.8783224  79.1113224  41.4191663
  86.7463224  81.3573224  39.7521663  86.1143224  82.3693224  39.3351663
  86.1963224  80.1523224  39.8831663  86.7423224  79.4363224  40.3411663
  84.8353224  79.8213224  39.3921663  84.7653224  80.1343224  38.3501663
  84.6183224  78.2943224  39.5041663  83.6203224  78.0413224  39.1451663
  85.3633224  77.7753224  38.9001663  84.7183224  77.9883224  40.5441663
  83.7243224  80.5533224  40.1451663  82.7533224  81.0323224  39.5181663
  83.7873224  80.6693224  41.4731663  84.5653224  80.2973224  41.9991663
  82.6943224  81.3573224  42.1931663  81.7543224  80.8633224  41.9491663
  82.9063224  81.2613224  43.7011663  83.8643224  81.7193224  43.9471663
  82.9483224  80.2093224  43.9801663  81.8303224  81.9323224  44.5651663
  81.6883224  82.9623224  44.2351663  80.4193224  81.2703224  44.3451663
  79.6813224  81.7703224  44.9721663  80.1303224  81.3683224  43.2981663
  80.4673224  80.2153224  44.6121663  82.1633224  81.9863224  46.0861663
  81.3493224  82.4773224  46.6201663  82.2883224  80.9723224  46.4671663
  83.0863224  82.5463224  46.2371663  82.6163224  82.8303224  41.7551663
  81.5563224  83.3313224  41.3371663  83.7473224  83.5373224  41.7921663
  84.6033224  83.1283224  42.1381663  83.7573224  84.9133224  41.3311663
  83.0473224  85.4983224  41.9151663  85.1263224  85.5463224  41.5391663
  85.8873224  84.9323224  41.0581663  85.3553224  85.5773224  42.6051663
  85.2023224  86.9403224  40.9841663  85.7753224  87.2113224  39.7611663
  86.2143224  86.5223224  39.1671663  85.6553224  88.5193224  39.4951663
  86.0113224  89.0223224  38.5961663  85.0273224  89.1263224  40.5051663
  84.7363224  88.1243224  41.4491663  84.2263224  88.2623224  42.4031663
  83.3333224  85.0053224  39.8611663  82.5573224  85.9333224  39.5421663
  83.7863224  84.1043224  38.9801663  84.3803224  83.3373224  39.2621663
  83.4063224  84.2353224  37.5541663  83.7113224  85.2243224  37.2121663
  84.1073224  83.1803224  36.7031663  83.8113224  83.2983224  35.6611663
  85.1873224  83.3013224  36.7901663  83.8253224  82.1873224  37.0501663
  81.8913224  84.1083224  37.4091663  81.2593224  84.9433224  36.6911663
  81.2783224  83.1473224  38.1031663  81.8353224  82.5883224  38.7331663
  79.8603224  82.8783224  37.9881663  79.6303224  82.7153224  36.9351663
  79.4883224  81.6153224  38.7511663  78.4183224  81.4313224  38.6511663
  80.0413224  80.7683224  38.3441663  79.7383224  81.7393224  39.8031663
  79.0213224  84.0493224  38.4581663  77.9283224  84.2603224  37.9281663
  79.4703224  84.8113224  39.4511663  80.3673224  84.5963224  39.8631663
  78.7003224  85.9573224  39.9661663  77.6473224  85.8003224  39.7311663
  78.7223224  86.0713224  41.5231663  78.0173224  86.8433224  41.8321663
  78.1893224  84.7543224  42.2191663  78.2213224  84.8763224  43.3021663
  77.1623224  84.5673224  41.9061663  78.8173224  83.9113224  41.9311663
  80.0933224  86.4423224  42.1071663  80.0223224  86.5013224  43.1931663
  80.8243224  85.6813224  41.8321663  80.4083224  87.4083224  41.7111663
  79.1063224  87.2953224  39.3501663  78.3713224  88.2933224  39.4791663
  80.2053224  87.3543224  38.5921663  80.7123224  86.4993224  38.4151663
  80.6973224  88.6113224  38.0121663  80.1983224  89.4423224  38.5121663
  82.2173224  88.7423224  38.2301663  82.7453224  88.1863224  37.4551663
  82.4873224  88.3023224  39.1911663  82.6953224  90.1783224  38.2061663
  83.4633224  90.5373224  39.0741663  82.2973224  90.9803224  37.2761663
  82.6163224  91.9303224  37.2641663  81.6713224  90.6553224  36.5691663
  80.3813224  88.7663224  36.5371663  79.9303224  89.8463224  36.1301663
  80.6363224  87.7773224  35.6871663  80.8433224  86.8503224  36.0311663
  80.6213224  88.0213224  34.2051663  81.0793224  88.9913224  34.0091663
  81.6263224  87.1203224  33.4851663  81.4873224  87.2083224  32.4081663
  81.4413224  86.0813224  33.7551663  83.0363224  87.4773224  33.8311663
  83.6513224  88.6093224  33.3231663  83.1313224  89.2073224  32.5741663
  84.8933224  88.9923224  33.7411663  85.3783224  89.8553224  33.2861663
  85.5633224  88.2943224  34.7501663  86.5273224  88.6493224  35.1121663
  84.9663224  87.1623224  35.2531663  85.4743224  86.5723224  36.0151663
  83.7163224  86.7423224  34.8111663  83.2663224  85.8403224  35.2271663
  79.2443224  88.0583224  33.6001663  79.1123224  88.3923224  32.4091663
  78.1963224  87.8113224  34.3851663  78.3583224  87.4963224  35.3311663
  76.8353224  87.9813224  33.9221663  76.1993224  87.2213224  34.3751663
  76.7963224  87.8303224  32.8431663  76.2313224  89.3403224  34.2271663
  75.0613224  89.5783224  33.8871663  76.9963224  90.2603224  34.8161663
  77.9843224  90.0933224  34.9451663  76.4223224  91.5153224  35.2811663
  75.6073224  91.2893224  35.9691663  77.4003224  92.3743224  36.0781663
  77.0073224  93.3873224  36.1651663  78.3493224  92.4353224  35.5451663
  77.6543224  91.8013224  37.5061663  78.0683224  90.7973224  37.4151663
  76.7083224  91.7673224  38.0461663  78.5703224  92.6133224  38.2321663
  78.0793224  93.4793224  39.0051663  79.8603224  92.4073224  38.0491663
  80.5313224  92.9613224  38.5441663  80.1693224  91.6973224  37.4151663
  75.8163224  92.3643224  34.1461663  74.6313224  92.7343224  34.2431663
  76.5593224  92.7223224  33.0951663  77.5423224  92.4933224  33.0641663
  75.9633224  93.4473224  31.9791663  75.3053224  94.2193224  32.3801663
  77.0083224  94.2333224  31.1511663  77.6323224  93.5343224  30.5961663
  77.6603224  94.7923224  31.8241663  76.4323224  95.2153224  30.1581663
  76.2123224  96.5263224  30.4991663  76.4813224  96.8833224  31.4931663
  75.6333224  97.4493224  29.5751663  75.4693224  98.4853224  29.8701663
  75.2623224  97.0113224  28.3561663  74.7243224  97.9383224  27.4371663
  74.6133224  97.4803224  26.5641663  75.4553224  95.6923224  27.9691663
  75.1513224  95.3423224  26.9821663  76.0473224  94.8123224  28.8671663
  76.2103224  93.7833224  28.5461663  75.0883224  92.5233224  31.0871663
  73.9833224  92.9443224  30.6481663  75.4803224  91.2583224  30.8581663
  76.8613224  90.6773224  30.9561663  77.6313224  91.3873224  30.6201663
  77.0793224  90.3223224  31.9741663  76.8133224  89.5093224  30.0181663
  77.1243224  89.7783224  28.9981663  77.4653224  88.6843224  30.3421663
  75.3753224  89.0683224  30.0241663  75.0903224  88.4773224  29.1411663
  75.0973224  88.4773224  30.9091663  74.6273224  90.3933224  30.0271663
  74.6123224  90.7813224  28.9981663  73.1913224  90.2723224  30.5341663
  72.2703224  90.3333224  29.7221663  72.9763224  90.1843224  31.8481663
  73.7793224  90.1383224  32.4591663  71.6343224  90.1523224  32.4311663
  70.9363224  89.7983224  31.6721663  71.5963224  89.1863224  33.6371663
  70.7093224  89.3883224  34.2371663  72.4673224  89.3603224  34.2701663
  71.5793224  87.7053224  33.2541663  70.4983224  87.1653224  32.5811663
  69.6623224  87.8023224  32.2931663  70.4143224  85.8173224  32.2411663
  69.5393224  85.4423224  31.7101663  71.4723224  84.9883224  32.5681663
  71.3723224  83.6053224  32.2621663  71.6253224  83.0933224  33.0731663
  72.5753224  85.4473224  33.2241663  73.4053224  84.7883224  33.4821663
  72.6263224  86.8403224  33.5771663  73.5013224  87.2173224  34.1071663
  71.1523224  91.5393224  32.8661663  69.9733224  91.8253224  32.7601663
  71.9993224  92.3803224  33.4851663  72.9583224  92.0643224  33.5051663
  71.6603224  93.6533224  34.1011663  72.2953224  93.8173224  34.9711663
  70.6303224  93.6223224  34.4571663  71.8003224  94.8693224  33.1891663
  71.4063224  95.9773224  33.6091663  72.2643224  94.7013224  31.9561663
  72.5773224  93.7863224  31.6641663  72.3323224  95.8013224  31.0201663
  72.8783224  95.4893224  30.1311663  72.8893224  96.6253224  31.4661663
  71.0043224  96.3323224  30.5791663  70.9623224  97.4133224  29.9751663
  69.9053224  95.6313224  30.8561663  70.0623224  94.6793224  31.1541663
  68.5503224  96.1253224  30.7621663  68.5553224  97.0383224  30.1681663
  67.6533224  95.1183224  30.0061663  67.5583224  94.2153224  30.6101663
  68.1413224  94.8543224  29.0691663  66.2773224  95.6653224  29.7121663
  65.9273224  96.2473224  30.5651663  66.3843224  96.6393224  28.5131663
  65.3983224  97.0453224  28.2851663  67.0623224  97.4543224  28.7661663
  66.7663224  96.1053224  27.6441663  65.2373224  94.5573224  29.4401663
  64.2673224  95.0113224  29.2361663  65.5503224  93.9673224  28.5781663
  65.1583224  93.9103224  30.3131663  68.0443224  96.4163224  32.1361663
  67.8613224  95.4673224  32.9351663  67.8943224  97.7003224  32.5111663
  67.9483224  98.4273224  31.8121663  67.6553224  98.0703224  33.9061663
  68.4623224  97.6643224  34.5141663  67.6543224  99.6273224  34.0801663
  68.5753224 100.0393224  33.6701663  66.4843224 100.3753224  33.3761663
  66.5753224 101.4463224  33.5581663  66.5233224 100.1853224  32.3041663
  65.5333224 100.0193224  33.7731663  67.6663224 100.0463224  35.5681663
  66.8173224  99.5943224  36.0801663  67.5533224 101.1273224  35.6421663
  68.9273224  99.6583224  36.3351663  68.8423224  99.9943224  37.3691663
  69.0473224  98.5743224  36.3141663  69.7933224 100.1283224  35.8721663
  66.3413224  97.4923224  34.3951663  66.2173224  97.1273224  35.5891663
  65.3413224  97.2503224  33.5311663  65.4493224  97.4863224  32.5551663
  64.0993224  96.6513224  33.9801663  63.7403224  97.2073224  34.8461663
  63.0193224  96.6373224  32.8991663  62.1393224  96.1103224  33.2701663
  63.3833224  96.0933224  32.0281663  62.5813224  98.0283224  32.4411663
  62.7093224  98.7373224  33.2591663  61.5263224  98.0063224  32.1711663
  63.4103224  98.7663224  31.0451663  62.7223224  97.7473224  29.6671663
  63.1433224  98.0843224  28.7201663  62.9783224  96.6993224  29.8261663
  61.6373224  97.8553224  29.6411663  64.2923224  95.1943224  34.4301663
  63.5133224  94.7073224  35.2801663  65.2553224  94.4773224  33.8681663
  65.8313224  94.8923224  33.1491663  65.5063224  93.0743224  34.2741663
  64.5463224  92.5673224  34.3811663  66.3243224  92.3273224  33.2021663
  67.3343224  92.7373224  33.1641663  65.8703224  92.4833224  32.2231663
  66.4083224  90.8163224  33.4781663  65.3403224  90.2183224  33.7391663
  67.6183224  90.2383224  33.4311663  67.7113224  89.2573224  33.6051663
  68.4263224  90.7873224  33.2221663  66.2013224  92.9823224  35.6111663
  66.0083224  91.9983224  36.3781663  67.1143224  93.9083224  35.8661663
  67.2953224  94.6163224  35.1691663  67.8813224  93.9363224  37.1491663
  67.4053224  93.2513224  37.8521663  69.3213224  93.4333224  37.0021663
  69.8183224  93.4643224  37.9721663  69.8703224  94.0933224  36.3321663
  69.4933224  91.9673224  36.4451663  70.5523224  91.7613224  36.2831663
  68.9563224  91.8713224  35.5011663  68.9553224  90.9043224  37.3931663
  69.0273224  89.9253224  36.9201663  67.9133224  91.1193224  37.6261663
  69.7133224  90.8723224  38.6431663  70.4573224  91.5473224  38.7591663
  69.5023224  90.0243224  39.6421663  68.5373224  89.1533224  39.6231663
  67.9153224  89.1053224  38.8281663  68.4093224  88.5253224  40.4031663
  70.2883224  90.1023224  40.6991663  71.0253224  90.7933224  40.7311663
  70.1543224  89.4723224  41.4751663  67.9033224  95.3353224  37.7961663
  68.9173224  95.9683224  37.8421663  66.7513224  95.7893224  38.2691663
  65.4233224  95.1953224  38.2211663  64.9053224  95.3853224  37.2701663
  65.4373224  94.1183224  38.4461663  64.7123224  95.9423224  39.3471663
  63.6203224  95.9853224  39.2231663  64.9023224  95.5173224  40.3441663
  65.3153224  97.3573224  39.2481663  64.8473224  97.9633224  38.4581663
  65.2213224  97.9243224  40.1861663  66.7673224  97.1283224  38.9291663
  67.0883224  97.8873224  38.2001663  67.6793224  97.1753224  40.1571663
  67.6523224  96.1993224  40.9641663  68.3653224  98.2993224  40.3731663
  68.2333224  99.0553224  39.7161663  69.2893224  98.4853224  41.5051663
  69.6293224  97.5043224  41.8391663  70.4933224  99.3323224  41.0881663
  71.1813224  99.4253224  41.9281663  71.2763224  98.7003224  39.8751663
  72.1223224  99.3373224  39.6161663  71.6383224  97.7103224  40.1521663
  70.6103224  98.6153224  39.0171663  70.0573224 100.6453224  40.7841663
  70.5473224 101.3243224  41.3471663  68.6403224  99.1583224  42.7051663
  69.2283224  99.1693224  43.8241663  67.4453224  99.7263224  42.5681663
  66.9663224  99.5293224  41.7011663  66.8103224 100.5773224  43.5441663
  66.9943224 100.1553224  44.5321663  67.3993224 101.9953224  43.5131663
  66.9003224 102.6133224  44.2601663  68.4663224 101.9513224  43.7331663
  67.2503224 102.4293224  42.5261663  65.3493224 100.6133224  43.3021663
  64.8873224 100.4713224  42.1581663  64.5723224 100.8533224  44.3661663
  65.0373224 100.8173224  45.2621663  63.1493224 101.1523224  44.3171663
  62.8623224 101.2983224  43.2751663  62.2563224  99.9993224  44.7631663
  62.2443224  99.2293224  43.9921663  61.2343224 100.3573224  44.8851663
  62.6923224  99.4183224  45.9901663  62.3083224  99.9333224  46.7531663
  62.8833224 102.4413224  45.1111663  63.5863224 102.7133224  46.1011663
  61.9513224 103.2413224  44.6141663  61.3513224 102.8793224  43.8871663
  61.7593224 104.6323224  45.0811663  62.5233224 104.8553224  45.8261663
  61.9713224 105.6163224  43.9161663  61.7533224 106.6303224  44.2521663
  61.2763224 105.3823224  43.1111663  63.3573224 105.6303224  43.3201663
  63.5483224 104.6803224  42.8201663  64.0923224 105.7783224  44.1111663
  63.5173224 106.7503224  42.3001663  64.5723224 107.0023224  42.1991663
  62.9643224 107.6283224  42.6341663  63.0183224 106.3823224  40.9831663
  62.8393224 105.4033224  40.8051663  62.7733224 107.2103224  39.9861663
  62.8443224 108.5073224  40.1541663  63.0893224 108.8873224  41.0571663
  62.6533224 109.1273224  39.3811663  62.3963224 106.7103224  38.8471663
  62.2973224 105.7093224  38.7421663  62.2023224 107.3213224  38.0671663
  60.4283224 104.9323224  45.7531663  60.2503224 105.9893224  46.2681663
  59.5173224 103.9983224  45.6811663  59.7483224 103.1503224  45.1841663
  58.1973224 104.1313224  46.2821663  58.2983224 104.6763224  47.2211663
  57.2643224 104.9143224  45.3841663  57.6493224 105.9263224  45.2531663
  56.2863224 104.9943224  45.8571663  57.0583224 104.3493224  44.0491663
  56.4343224 103.4583224  44.1231663  58.0213224 104.0823224  43.6141663
  56.3433224 105.4703224  43.1921663  57.0003224 106.3343224  43.1031663
  55.4173224 105.7683224  43.6831663  56.0423224 104.9743224  41.8871663
  56.4343224 104.0803224  41.6221663  55.2753224 105.6253224  41.0031663
  54.7333224 106.8183224  41.2871663  54.8993224 107.2473224  42.1861663
  54.1583224 107.2873224  40.6021663  55.0793224 105.0793224  39.8131663
  55.5043224 104.1903224  39.5891663  54.5053224 105.5503224  39.1301663
  57.6293224 102.7483224  46.5461663  58.0033224 101.7823224  45.8661663
  56.7143224 102.6683224  47.4951663  56.5303224 103.5113224  48.0201663
  55.9663224 101.4443224  47.8201663  56.6283224 100.5893224  47.6881663
  55.5253224 101.4603224  49.3121663  54.9903224 100.5353224  49.5261663
  54.8413224 102.2943224  49.4631663  56.6493224 101.5923224  50.3391663
  57.1943224 102.5203224  50.1651663  56.0843224 101.7453224  51.7861663
  56.9103224 101.8373224  52.4911663  55.4613224 102.6383224  51.8411663
  55.4883224 100.8693224  52.0381663  57.6303224 100.4793224  50.2801663
  58.4023224 100.6343224  51.0341663  57.1203224  99.5343224  50.4711663
  58.0893224 100.4503224  49.2921663  54.7713224 101.2983224  46.8911663
  54.5743224 102.1573224  45.9921663  54.0243224 100.2173224  46.9701663
  54.2743224  99.4933224  47.6291663  52.8343224 100.0363224  46.1231663
  53.1323224 100.1463224  45.0811663  52.2163224  98.6623224  46.3411663
  51.1983224  98.6733224  45.9521663  52.1723224  98.4673224  47.4111663
  52.9223224  97.4753224  45.7021663  53.9573224  97.4403224  46.0431663
  52.3063224  96.1613224  46.1651663  52.8293224  95.3283224  45.6941663
  52.3963224  96.0793224  47.2481663  51.2543224  96.1343224  45.8841663
  52.9283224  97.5623224  44.1631663  53.4433224  96.6943224  43.7511663
  51.9023224  97.5833224  43.7961663  53.4433224  98.4713224  43.8521663
  51.7923224 101.1113224  46.4801663  51.6833224 101.4853224  47.6651663
  51.0943224 101.6463224  45.4751663  51.2183224 101.3823224  44.0461663
  52.1553224 101.7693224  43.6181663  51.0903224 100.3173224  43.8021663
  49.9763224 102.2193224  43.4631663  50.1483224 102.5823224  42.4391663
  49.0423224 101.6393224  43.4421663  49.8563224 103.2863224  44.3331663
  50.5863224 104.0803224  44.1171663  48.8583224 103.7463224  44.2891663
  50.1073224 102.7093224  45.7321663  50.5553224 103.4663224  46.3921663
  48.8093224 102.2153224  46.3581663  48.4283224 101.0703224  46.1421663
  48.1593224 103.1083224  47.1101663  48.6273224 103.9793224  47.3161663
  46.8163224 102.8793224  47.6391663  46.7523224 101.8473224  47.9861663
  46.5213224 103.8273224  48.8021663  45.5103224 103.6503224  49.1681663
  46.5663224 104.8583224  48.4511663  47.4693224 103.7153224  50.0101663
  47.3003224 104.5643224  50.6711663  48.4993224 103.7643224  49.6561663
  47.2973224 102.4303224  50.8111663  46.3313224 101.6593224  50.5571663
  48.1513224 102.1973224  51.7051663  45.7813224 103.0993224  46.5321663
  45.9063224 104.0453224  45.7251663  44.7573224 102.2393224  46.5121663
  44.8303224 101.3953224  47.0621663  43.5393224 102.4773224  45.7231663
  43.7863224 102.3743224  44.6661663  42.4293224 101.4713224  46.0921663
  41.5163224 101.7213224  45.5511663  42.2093224 101.5463224  47.1571663
  42.7603224 100.0373224  45.7931663  43.6653224  99.7533224  46.3291663
  42.9413224  99.9203224  44.7241663  41.6573224  99.0593224  46.1891663
  41.8173224  98.1063224  45.6851663  40.6903224  99.4563224  45.8791663
  41.5903224  98.7813224  47.7171663  42.5873224  98.8763224  48.1481663
  41.2413224  97.7643224  47.8861663  40.6733224  99.7123224  48.4791663
  40.6843224  99.4693224  49.4591663  40.9893224 100.6653224  48.3651663
  39.7323224  99.6253224  48.1221663  43.0223224 103.8963224  45.9641663
  43.1373224 104.4373224  47.0691663  42.5133224 104.5143224  44.9091663
  42.5023224 104.0373224  44.0191663  41.9673224 105.8673224  44.9981663
  41.4123224 105.9753224  45.9291663  41.2613224 106.0293224  44.1831663
  42.9643224 107.0033224  44.9471663  42.6473224 108.1253224  45.3331663
  44.1803224 106.7273224  44.4541663  44.3923224 105.7793224  44.1781663
  45.2003224 107.7523224  44.3061663  44.7913224 108.7003224  44.6571663
  46.4783224 107.4573224  45.1221663  47.2063224 108.2513224  44.9581663
  46.1983224 107.3633224  46.6441663  47.1283224 107.1553224  47.1731663
  45.7833224 108.3073224  46.9971663  45.4863224 106.5613224  46.8341663
  47.1133224 106.2413224  44.6631663  46.6723224 105.4443224  45.0841663
  45.5623224 107.8693224  42.8191663  45.2713224 106.9393224  42.0331663
  46.1833224 109.0043224  42.4341663  46.2623224 110.2913224  43.1651663
  45.2793224 110.7823224  43.2181663  46.6773224 110.1453224  44.1731663
  47.2003224 111.1353224  42.3551663  46.8383224 112.1713224  42.2791663
  48.1963224 111.1803224  42.8191663  47.2923224 110.5063224  40.9681663
  46.7693224 111.1193224  40.2191663  48.3383224 110.4213224  40.6401663
  46.6503224 109.1093224  41.0461663  45.7853224 109.0533224  40.3681663
  47.6673224 108.0143224  40.6841663  47.6563224 107.5163224  39.5661663
  48.5183224 107.6483224  41.6351663  48.4783224 108.1033224  42.5361663
  49.5153224 106.5993224  41.4091663  50.1063224 106.8663224  40.5321663
  50.4663224 106.5163224  42.5961663  51.1443224 105.6733224  42.4611663
  49.8963224 106.3353224  43.5071663  51.3393224 107.7433224  42.8611663
  51.8643224 108.0073224  41.9441663  52.0853224 107.4903224  43.6141663
  50.5973224 108.9853224  43.3501663  49.5913224 108.8613224  44.0831663
  51.0463224 110.1013224  42.9661663  48.8493224 105.2333224  41.1321663
  49.2943224 104.4573224  40.3151663  47.7673224 104.9073224  41.8241663
  47.4343224 105.4843224  42.5831663  47.0433224 103.6963224  41.4871663
  47.7373224 102.8563224  41.5241663  45.9283224 103.3553224  42.5311663
  45.0763224 104.0173224  42.3821663  46.3073224 103.5303224  43.5391663
  45.4193224 101.9313224  42.4731663  44.4273224 101.5473224  41.5821663
  44.0033224 102.2763224  40.8911663  43.9363224 100.2223224  41.5341663
  43.1563224  99.9553224  40.8211663  44.4673224  99.2853224  42.3871663
  44.0073224  97.9583224  42.3591663  44.6033224  97.4323224  41.7631663
  45.4383224  99.6563224  43.2921663  45.8313224  98.9053224  43.9771663
  45.9143224 100.9563224  43.3421663  46.6833224 101.2153224  44.0701663
  46.4753224 103.7523224  40.0631663  46.5543224 102.7753224  39.3121663
  45.8463224 104.8893224  39.6981663  45.7503224 105.6473224  40.3591663
  45.2903224 105.0463224  38.3361663  44.5383224 104.2723224  38.1781663
  44.5313224 106.3913224  38.1771663  44.2293224 106.5183224  37.1371663
  45.1973224 107.2173224  38.4271663  43.2583224 106.4993224  39.0741663
  42.7133224 107.4033224  38.8061663  43.5663224 106.5893224  40.1151663
  42.3033224 105.3093224  38.9651663  41.9823224 104.8333224  37.8331663
  41.8553224 104.8523224  40.0401663  46.3293224 104.8813224  37.2151663
  46.0543224 104.3033224  36.1591663  47.5533224 105.2903224  37.5111663
  47.7173224 105.7243224  38.4081663  48.6893224 105.1303224  36.5661663
  48.4003224 105.5523224  35.6031663  49.8643224 105.9593224  37.0861663
  50.1643224 105.5903224  38.0671663  49.5523224 106.9963224  37.2081663
  51.1493224 105.9763224  36.1991663  50.9353224 106.5173224  35.2781663
  51.4093224 104.9513224  35.9341663  52.3173224 106.6413224  36.9601663
  52.7423224 106.1343224  38.0261663  52.7873224 107.7073224  36.5061663
  49.0553224 103.6753224  36.3361663  49.4173224 103.3073224  35.2361663
  48.9623224 102.8183224  37.3471663  48.7583224 103.1413224  38.2821663
  49.1563224 101.3903224  37.1141663  50.1603224 101.2373224  36.7191663
  49.0213224 100.5473224  38.3921663  49.0223224  99.4883224  38.1311663
  48.0683224 100.7653224  38.8721663  50.0943224 100.7553224  39.4151663
  49.9623224 101.7283224  39.8881663  51.0683224 100.7423224  38.9281663
  50.1223224  99.4893224  40.7491663  48.4223224  99.5543224  41.4051663
  48.3173224  98.8333224  42.2161663  48.2153224 100.5573224  41.7811663
  47.7163224  99.3113224  40.6101663  48.1943224 100.8263224  36.0881663
  48.5453224  99.9213224  35.3501663  46.9443224 101.3463224  36.0721663
  46.6923224 102.0693224  36.7301663  45.9393224 100.8743224  35.1071663
  45.9873224  99.7873224  35.0621663  44.4753224 101.2293224  35.5511663
  44.3873224 102.3063224  35.6871663  43.4963224 100.7693224  34.4741663
  42.4793224 101.0133224  34.7791663  43.7243224 101.2733224  33.5361663
  43.5853224  99.6913224  34.3381663  44.1423224 100.5973224  36.9201663
  44.9423224 100.8183224  37.6271663  44.0883224  99.5143224  36.8171663
  42.8083224 101.0883224  37.5381663  42.6493224 100.5963224  38.4981663
  42.8513224 102.1683224  37.6861663  41.9853224 100.8463224  36.8671663
  46.2283224 101.4363224  33.7351663  46.2563224 100.6833224  32.7381663
  46.4763224 102.7593224  33.6581663  46.6243224 103.2673224  34.5181663
  46.5383224 103.4863224  32.3721663  45.9163224 102.9603224  31.6461663
  46.0283224 104.9103224  32.5641663  46.1083224 105.4553224  31.6231663
  46.6533224 105.4253224  33.2951663  44.5833224 104.9413224  33.0351663
  43.7623224 104.1443224  32.5601663  44.2923224 105.8043224  33.9941663
  43.3563224 105.8683224  34.3431663  45.0073224 106.3933224  34.3701663
  47.9053224 103.5803224  31.6591663  47.9743224 103.8063224  30.4681663
  48.9913224 103.4553224  32.4341663  48.8633224 103.2483224  33.4141663
  50.3583224 103.6093224  31.9061663  50.3713224 103.2613224  30.8721663
  50.7453224 105.0853224  31.9371663  50.9473224 105.3873224  32.9651663
  49.9103224 105.6883224  31.5771663  51.9593224 105.3933224  31.0971663
  52.6923224 104.4843224  30.6501663  52.2163224 106.6963224  30.9121663
  53.0053224 106.9783224  30.3651663  51.6193224 107.3863224  31.3201663
  51.3033224 102.7203224  32.7521663  52.0973224 103.2303224  33.5361663
  51.1863224 101.4133224  32.6141663  50.5333224 101.0703224  31.9251663
  51.9483224 100.4613224  33.4021663  51.7403224 100.6163224  34.4601663
  51.5113224  98.9873224  33.1831663  50.4233224  98.9293224  33.1651663
  51.8583224  98.3773224  34.0181663  52.0083224  98.3403224  31.9271663
  51.4253224  98.5523224  30.6921663  52.0693224  97.8373224  29.7821663
  51.8503224  97.8183224  28.7151663  53.0243224  97.1483224  30.3791663
  53.6773224  96.5263224  29.9241663  52.9843224  97.4193224  31.7341663
  53.6443224  97.0043224  32.4971663  53.4493224 100.6033224  33.2451663
  54.1983224 100.3823224  34.2151663  53.9383224 100.9533224  32.0451663
  53.3263224 101.1343224  31.2621663  55.3673224 101.0743224  31.8641663
  55.8403224 100.1613224  32.2271663  55.7253224 101.2443224  30.3801663
  56.7673224 101.5523224  30.2901663  55.1113224 102.0343224  29.9461663
  55.5193224  99.9723224  29.5911663  54.4553224  99.7423224  29.5651663
  56.0273224  99.1543224  30.1011663  56.0313224  99.9903224  28.1291663
  56.6173224 101.0133224  27.6901663  55.8113224  98.9373224  27.4361663
  55.8683224 102.2813224  32.6941663  56.9603224 102.2183224  33.2621663
  55.1313224 103.3863224  32.7131663  54.2813224 103.4243224  32.1691663
  55.5233224 104.5523224  33.5061663  56.5513224 104.8123224  33.2531663
  54.7023224 105.7893224  33.1511663  53.6543224 105.6123224  33.3931663
  54.7643224 105.9713224  32.0781663  55.1273224 107.0963224  33.8661663
  55.0223224 106.9723224  34.9431663  54.4793224 107.9133224  33.5471663
  56.5863224 107.5563224  33.6091663  56.7533224 107.6543224  32.5361663
  57.2783224 106.8093224  34.0001663  56.8093224 108.9183224  34.3141663
  56.4733224 108.8513224  35.3491663  56.2223224 109.6873224  33.8141663
  58.1563224 109.4333224  34.3751663  58.1563224 110.3203224  34.8581663
  58.7453224 108.7793224  34.8721663  58.5113224 109.5613224  33.4381663
  55.4533224 104.2123224  34.9851663  56.3373224 104.6353224  35.7301663
  54.4533224 103.4773224  35.4381663  53.7333224 103.1813224  34.7941663
  54.3593224 103.0783224  36.8511663  54.2843224 103.9833224  37.4541663
  53.1613224 102.1843224  37.0891663  53.1183224 101.9063224  38.1421663
  52.2503224 102.7173224  36.8171663  53.2513224 101.2863224  36.4801663
  55.6383224 102.3133224  37.2501663  56.2223224 102.5133224  38.3011663
  56.0673224 101.4003224  36.3801663  55.5303224 101.2793224  35.5331663
  57.2573224 100.5813224  36.5901663  57.1473224 100.0473224  37.5341663
  57.3833224  99.4883224  35.5101663  57.6453224  99.9473224  34.5571663
  56.4203224  98.9913224  35.3801663  58.3953224  98.4083224  35.7621663
  58.0773224  97.2353224  36.4471663  57.0693224  97.0863224  36.8341663
  59.0103224  96.2333224  36.6591663  58.7263224  95.3303224  37.1981663
  60.2913224  96.3553224  36.2461663  61.1933224  95.3123224  36.4991663
  60.9323224  94.8703224  37.3511663  60.6343224  97.5223224  35.6011663
  61.6673224  97.6583224  35.2801663  59.6833224  98.5293224  35.3541663
  60.0043224  99.4243224  34.8211663  58.5103224 101.4753224  36.6871663
  59.3223224 101.3683224  37.6021663  58.6693224 102.3173224  35.6931663
  57.9553224 102.3833224  34.9821663  59.8483224 103.1573224  35.5911663
  60.7313224 102.5233224  35.6601663  59.8813224 103.8693224  34.1931663
  60.6743224 104.6173224  34.2021663  58.9313224 104.3793224  34.0411663
  60.1193224 102.8893224  33.0621663  59.4693224 102.0233224  33.1881663
  59.7563224 103.6073224  31.6881663  59.9213224 102.9163224  30.8611663
  58.7093224 103.9113224  31.7021663  60.3883224 104.4853224  31.5581663
  61.5423224 102.3683224  32.9771663  61.6263224 101.6723224  32.1411663
  62.2273224 103.2033224  32.8241663  61.7973224 101.8543224  33.9041663
  59.9793224 104.2113224  36.7251663  61.0813224 104.5123224  37.1551663
  58.8413224 104.6733224  37.2351663  57.9763224 104.3703224  36.8111663
  58.7933224 105.6083224  38.3931663  59.4703224 106.4403224  38.1941663
  57.3783224 106.1503224  38.6711663  57.3363224 106.5573224  39.6811663
  56.6593224 105.3343224  38.6181663  56.9123224 107.2533224  37.6981663
  56.7623224 106.8243224  36.7061663  57.6703224 108.0353224  37.6451663
  55.5963224 107.9053224  38.1291663  55.7443224 108.4373224  39.0681663
  54.8363224 107.1363224  38.2641663  55.0163224 108.8903224  37.1891663
  54.3623224 108.5503224  36.4971663  55.2873224 110.1973224  37.1801663
  56.1813224 110.7223224  38.0171663  56.6683224 110.1283224  38.6741663
  56.3723224 111.7133224  37.9951663  54.6813224 110.9903224  36.2971663
  54.0203224 110.6013224  35.6391663  54.8823224 111.9793224  36.2861663
  59.2403224 104.8603224  39.6681663  59.7383224 105.4793224  40.6361663
  59.0013224 103.5703224  39.7151663  58.5753224 103.1333224  38.9101663
  59.3323224 102.7383224  40.9001663  59.0933224 103.3063224  41.7991663
  58.4873224 101.5103224  40.9191663  58.6923224 100.9143224  40.0301663
  58.7173224 100.5913224  42.1501663  58.0633224  99.7223224  42.0831663
  59.7563224 100.2623224  42.1701663  58.4943224 101.1433224  43.0621663
  57.0983224 101.8903224  40.9431663  56.7843224 102.1113224  40.0151663
  60.8043224 102.3973224  40.9301663  61.4483224 102.4093224  42.0051663
  61.3953224 101.9903224  39.8141663  60.8403224 102.0023224  38.9701663
  62.7873224 101.5333224  39.7481663  63.0203224 101.0013224  40.6701663
  63.0243224 100.4473224  38.6781663  64.0593224 100.1093224  38.7261663
  62.0893224  99.2483224  38.9241663  62.2643224  98.4883224  38.1631663
  62.2883224  98.8283224  39.9091663  61.0523224  99.5793224  38.8741663
  62.8773224 101.0243224  37.2671663  63.3403224 102.0103224  37.2271663
  61.8203224 101.1503224  37.0341663  63.5223224 100.1313224  36.1801663
  63.3863224 100.5933224  35.2021663  64.5883224 100.0213224  36.3841663
  63.0483224  99.1503224  36.1871663  63.7813224 102.7083224  39.6251663
  63.4053224 103.8783224  39.4791663  65.0683224 102.3573224  39.6181663
  65.2323224 101.3713224  39.7611663  66.2163224 103.2533224  39.4271663
  66.4343224 103.7433224  40.3761663  67.4323224 102.4353224  38.9791663
  67.2903224 102.1063224  37.9501663  68.7313224 103.2543224  39.0551663
  69.5693224 102.6383224  38.7291663  68.6493224 104.1273224  38.4081663
  68.8973224 103.5783224  40.0821663  67.5303224 101.2513224  39.8391663
  66.7263224 101.2023224  40.4311663  65.9263224 104.3533224  38.3991663
  65.5543224 104.0103224  37.2361663  66.1233224 105.6223224  38.7591663
  66.4013224 105.8233224  39.7091663  65.9453224 106.7453224  37.8041663
  64.9563224 106.6603224  37.3501663  65.9693224 108.0553224  38.5801663
  66.9843224 108.2583224  38.9191663  65.3403224 107.9653224  39.4651663
  65.5183224 109.1413224  37.8061663  64.5413224 109.2863224  37.9651663
  66.9863224 106.7133224  36.6741663  68.0493224 106.0833224  36.7811663
  66.6873224 107.4853224  35.6121663  65.8453224 108.0433224  35.6301663
  67.5593224 107.5373224  34.4201663  67.5853224 106.5453224  33.9671663
  66.8973224 108.4493224  33.3841663  66.7103224 109.4273224  33.8271663
  65.9333224 108.0313224  33.0941663  67.6823224 108.6743224  32.1231663
  67.8593224 107.7193224  31.6301663  68.6463224 109.1203224  32.3691663
  66.9013224 109.6133224  31.1741663  66.6163224 110.5183224  31.7111663
  65.9943224 109.1133224  30.8321663  67.6853224 110.0383224  29.9421663
  67.9223224 109.1603224  29.3411663  68.6213224 110.5033224  30.2491663
  66.8143224 111.0223224  29.1561663  67.3093224 111.3243224  28.3281663
  65.9523224 110.5693224  28.8861663  66.6063224 111.8243224  29.7341663
  69.0043224 107.9013224  34.7161663  69.9053224 107.2603224  34.1741663
  69.2673224 108.9773224  35.4721663  68.5153224 109.5053224  35.8911663
  70.6503224 109.4013224  35.7011663  71.1103224 109.6153224  34.7371663
  70.7183224 110.7513224  36.4181663  70.0243224 110.7343224  37.2591663
  70.3983224 111.5283224  35.7261663  72.0603224 111.1953224  36.9751663
  72.4363224 110.4393224  37.6651663  73.1413224 111.2963224  35.9311663
  74.0713224 111.6183224  36.4001663  73.2893224 110.3223224  35.4651663
  72.8483224 112.0213224  35.1731663  71.9113224 112.5663224  37.7461663
  72.8823224 112.8703224  38.1401663  71.5423224 113.3303224  37.0621663
  71.2073224 112.4463224  38.5701663  71.4723224 108.2533224  36.4031663
  72.5263224 107.8683224  35.8621663  71.0083224 107.7353224  37.5581663
  69.9683224 108.2633224  38.4681663  70.3003224 109.1523224  39.0241663
  69.0193224 108.4623224  37.9481663  69.7823224 107.0803224  39.4491663
  69.4743224 107.4243224  40.4481663  69.0083224 106.3803224  39.1011663
  71.1093224 106.3873224  39.5261663  71.7303224 106.7793224  40.3451663
  70.9993224 105.3063224  39.6961663  71.8063224 106.6423224  38.1611663
  72.8283224 107.0023224  38.3511663  71.8383224 105.3983224  37.2611663
  72.8043224 104.6113224  37.3511663  70.8203224 105.1603224  36.4471663
  69.9813224 105.7223224  36.4831663  70.9063224 104.0533224  35.4651663
  71.0573224 103.1203224  36.0081663  69.5693224 103.9373224  34.6481663
  69.3443224 104.8953224  34.1801663  69.6993224 102.8803224  33.5801663
  68.7663224 102.8103224  33.0211663  70.5093224 103.1463224  32.9021663
  69.9163224 101.9193224  34.0441663  68.5133224 103.5373224  35.5311663
  68.1833224 104.3263224  36.0601663  72.0843224 104.2483224  34.5181663
  72.8403224 103.2823224  34.3061663  72.2943224 105.4473224  33.9691663
  71.6863224 106.2223224  34.1931663  73.3963224 105.6563224  33.0441663
  73.2653224 104.9883224  32.1941663  73.4083224 107.0723224  32.4611663
  74.3013224 107.1873224  31.8461663  73.4633224 107.7853224  33.2821663
  72.2453224 107.4783224  31.6141663  71.3183224 107.2953224  32.1571663
  72.3083224 108.9893224  31.2971663  71.4543224 109.2673224  30.6801663
  72.2833224 109.5573224  32.2271663  73.2303224 109.2103224  30.7611663
  72.2503224 106.6303224  30.2741663  71.4023224 106.9243224  29.6541663
  73.1773224 106.8133224  29.7311663  72.1743224 105.5693224  30.5141663
  74.7413224 105.3363224  33.7071663  75.6273224 104.7273224  33.0821663
  74.8983224 105.7583224  34.9541663  74.1423224 106.2433224  35.4161663
  76.1463224 105.5363224  35.6761663  76.9733224 105.8613224  35.0451663
  76.1913224 106.3713224  36.9851663  75.3243224 106.1313224  37.5991663
  77.4773224 106.0783224  37.8221663  77.4673224 106.6843224  38.7281663
  77.5033224 105.0233224  38.0911663  78.3603224 106.3233224  37.2311663
  76.0823224 107.9173224  36.7411663  75.4333224 108.1063224  35.8851663
  77.0663224 108.3173224  36.4981663  75.5173224 108.7053224  37.9711663
  75.4693224 109.7683224  37.7311663  74.5173224 108.3413224  38.2091663
  76.1713224 108.5573224  38.8291663  76.3813224 104.0603224  36.0081663
  77.4433224 103.4983224  35.7561663  75.3273224 103.4143224  36.4951663
  74.4603224 103.9243224  36.5841663  75.3743224 101.9863224  36.9101663
  76.2463224 101.8403224  37.5491663  74.1843224 101.6073224  37.8361663
  74.1143224 102.3263224  38.6511663  74.3653224 100.6283224  38.2781663
  72.9213224 101.5653224  37.1781663  72.9733224 102.0893224  36.3311663
  75.5153224 101.0123224  35.7051663  76.2473224  99.9803224  35.8251663
  74.8963224 101.3003224  34.5381663  74.2493224 102.0753224  34.5071663
  75.1343224 100.5273224  33.3281663  74.8853224  99.4853224  33.5291663
  74.2443224 101.0143224  32.1471663  74.5643224 100.5053224  31.2381663
  74.3993224 102.0833224  32.0131663  72.7263224 100.7973224  32.2661663
  72.3483224 101.3363224  33.1351663  72.0223224 101.4073224  31.0721663
  70.9473224 101.2493224  31.1641663  72.2293224 102.4773224  31.0351663
  72.3813224 100.9353224  30.1581663  72.3523224  99.3253224  32.4301663
  71.2683224  99.2313224  32.5101663  72.7023224  98.7623224  31.5651663
  72.8183224  98.9303224  33.3331663  76.5813224 100.6033224  32.9121663
  77.1933224  99.6273224  32.3991663  77.1503224 101.8123224  33.0211663
  76.6133224 102.5933224  33.3711663  78.5463224 102.0213224  32.6391663
  78.6723224 101.7053224  31.6031663  78.9163224 103.5323224  32.7161663
  79.9673224 103.6623224  32.4621663  78.7803224 103.8883224  33.7371663
  78.1143224 104.3103224  31.8311663  77.2153224 104.4513224  32.2401663
  79.4933224 101.1833224  33.5181663  80.4353224 100.5373224  32.9931663
  79.2643224 101.1933224  34.8241663  78.5023224 101.7223224  35.2251663
  80.1523224 100.4053224  35.7231663  81.1873224 100.6803224  35.5161663
  80.0363224 100.8233224  37.2221663  79.9043224 101.9043224  37.2791663
  78.8513224 100.1813224  37.9031663  78.8123224 100.5023224  38.9441663
  77.9343224 100.4813224  37.3971663  78.9513224  99.0973224  37.8621663
  81.3293224 100.4153224  37.9841663  81.2433224 100.7103224  39.0301663
  81.4633224  99.3353224  37.9211663  82.1883224 100.9143224  37.5361663
  80.0353224  98.8813224  35.5251663  81.0073224  98.1483224  35.5151663
  78.8233224  98.3653224  35.3231663  77.9893224  98.9343224  35.2921663
  78.7053224  96.9143224  35.1401663  79.3163224  96.4203224  35.8941663
  77.3183224  96.3933224  35.4231663  77.2833224  95.3233224  35.2191663
  76.9253224  96.6373224  36.9381663  75.9213224  96.2543224  37.1201663
  77.6333224  96.1203224  37.5851663  76.9503224  97.7053224  37.1531663
  76.2433224  96.9043224  34.4721663  76.5483224  96.7143224  33.4421663
  76.1383224  97.9823224  34.5871663  74.8123224  96.2953224  34.6331663
  74.1423224  96.7413224  33.8981663  74.8563224  95.2173224  34.4771663
  74.4403224  96.5023224  35.6351663  79.2173224  96.5013224  33.7451663
  79.6383224  95.3493224  33.5671663  79.2133224  97.3983224  32.7371663
  78.7653224  98.2923224  32.8791663  79.8343224  97.1143224  31.4561663
  79.4003224  96.1963224  31.0571663  79.5603224  98.1953224  30.3821663
  80.1613224  99.0793224  30.5941663  78.5123224  98.4933224  30.4251663
  79.8763224  97.7153224  28.9691663  79.1673224  96.9353224  28.6951663
  80.8753224  97.2803224  28.9591663  79.8323224  98.7963224  27.8851663
  79.1623224  99.8083224  28.1251663  80.4893224  98.5293224  26.8611663
  81.3533224  96.9053224  31.6431663  81.8763224  95.9213224  31.1191663
  82.0123224  97.7803224  32.4071663  81.5043224  98.5523224  32.8141663
  83.4433224  97.6533224  32.6701663  83.9723224  97.6723224  31.7181663
  83.9533224  98.7393224  33.6081663  83.3203224  98.7813224  34.4941663
  85.4403224  98.3983224  34.0291663  85.8143224  99.1713224  34.7001663
  85.4623224  97.4353224  34.5361663  86.0693224  98.3543224  33.1401663
  83.8403224 100.1353224  32.9771663  82.8483224 100.2583224  32.5411663
  84.5653224 100.2293224  32.1691663  84.0943224 101.3063224  34.0651663
  84.0053224 102.2793224  33.5801663  83.3543224 101.2293224  34.8621663
  85.0933224 101.2013224  34.4851663  83.6663224  96.2863224  33.3881663
  84.5133224  95.4843224  32.9721663  82.8653224  95.9903224  34.4411663
  82.0623224  96.5683224  34.6421663  83.1493224  94.8293224  35.3051663
  84.2043224  94.8513224  35.5771663  82.3793224  94.8653224  36.6181663
  82.6763224  94.0063224  37.2191663  81.3163224  94.7793224  36.4001663
  82.6113224  96.1253224  37.4211663  82.2433224  96.9863224  36.8621663
  81.7133224  96.1043224  38.7121663  81.8833224  97.0143224  39.2881663
  80.6633224  96.0483224  38.4241663  81.9703224  95.2373224  39.3191663
  84.0743224  96.4423224  37.7761663  84.1173224  97.3683224  38.3511663
  84.4893224  95.6273224  38.3691663  84.6543224  96.5573224  36.8601663
  82.8823224  93.5153224  34.6241663  83.4013224  92.4653224  35.0631663
  82.0853224  93.4993224  33.5501663  81.6933224  94.3833224  33.2591663
  81.7593224  92.2903224  32.7911663  81.7993224  91.4353224  33.4681663
  80.3493224  92.4023224  32.2061663  80.1163224  91.4993224  31.6421663
  80.3093224  93.2413224  31.5121663  79.3983224  92.5863224  33.2571663
  79.3323224  93.5573224  33.4721663  82.7523224  91.9823224  31.6361663
  82.5383224  91.0343224  30.8591663  83.7743224  92.8413224  31.4711663
  83.9073224  93.5813224  32.1451663  84.7013224  92.7313224  30.3381663
  84.2003224  92.1933224  29.5321663  85.1143224  94.1493224  29.9051663
  85.6143224  94.6513224  30.7331663  86.0713224  94.1743224  28.7041663
  86.3183224  95.2063224  28.4571663  86.9833224  93.6323224  28.9541663
  85.5923224  93.7013224  27.8481663  83.9453224  94.8903224  29.5061663
  83.4063224  95.1473224  30.3141663  85.9373224  91.9543224  30.7491663
  86.5273224  92.2563224  31.8111663  86.3773224  90.9993224  29.9031663
  85.7723224  90.7273224  29.1411663  87.6943224  90.3433224  30.0461663
  87.9533224  90.2743224  31.1021663  87.7113224  88.9433224  29.4661663
  88.7333224  88.5663224  29.4561663  87.3633224  88.9733224  28.4331663
  86.8673224  87.9373224  30.1961663  85.7863224  87.3003224  29.6071663
  85.1753224  86.5403224  30.5181663  84.3023224  85.9113224  30.3431663
  85.8073224  86.6753224  31.6731663  85.5703224  86.2063224  32.5351663
  86.8523224  87.5693224  31.5031663  87.5593224  87.8913224  32.2681663
  88.7843224  91.1523224  29.3461663  88.7003224  91.3873224  28.1221663
  89.7873224  91.5583224  30.0961663  89.7173224  91.4643224  31.0991663
  91.0093224  92.1463224  29.5131663  90.7153224  92.9963224  28.8971663
  91.8943224  92.6143224  30.6561663  92.8063224  93.0543224  30.2531663
  91.3623224  93.3603224  31.2471663  92.1493224  91.7663224  31.2891663
  91.6923224  91.1183224  28.6501663  91.6563224  89.9103224  28.9181663
  92.3343224  91.5663224  27.5561663  92.3563224  92.5573224  27.3621663
  93.0013224  90.6493224  26.6421663  92.2993224  89.8593224  26.3711663
  93.3583224  91.3553224  25.2941663  92.5363224  92.0033224  24.9941663
  93.4853224  90.6053224  24.5131663  94.5443224  92.1193224  25.4151663
  94.4613224  92.7433224  26.1911663  94.2163224  89.9703224  27.2441663
  94.6493224  88.9443224  26.6881663  94.7553224  90.5003224  28.3271663
  94.3763224  91.3743224  28.6631663  95.8823224  89.8713224  29.0611663
  96.3943224  89.1843224  28.3861663  96.9583224  90.9463224  29.4241663
  97.3723224  91.3703224  28.5091663  97.7773224  90.4723224  29.9651663
  96.4213224  92.0913224  30.2791663  95.2263224  92.0753224  30.6851663
  97.1513224  93.0803224  30.6541663  95.4903224  89.0283224  30.2881663
  96.3043224  88.7103224  31.1421663  94.2273224  88.6613224  30.3671663
  93.5453224  88.9733224  29.6901663  93.8013224  87.7853224  31.4551663
  94.0653224  88.2563224  32.4021663  92.3333224  87.5853224  31.3411663
  92.1093224  87.0573224  30.4141663  91.8363224  88.5543224  31.2951663
  91.6833224  86.7793224  32.5101663  92.0793224  85.7653224  32.5021663
  90.6083224  86.7213224  32.3441663  91.9463224  87.4203224  33.8721663
  91.1153224  88.2763224  34.2881663  93.0253224  87.2073224  34.5061663
  94.5173224  86.4123224  31.3971663  94.9523224  85.9333224  30.3161663
  94.6853224  85.8213224  32.5741663  94.4353224  86.3723224  33.3831663
  95.1953224  84.4613224  32.7671663  95.5043224  84.0673224  31.7981663
  96.4043224  84.4443224  33.7151663  96.0693224  84.6953224  34.7211663
  97.0513224  83.0763224  33.7451663  97.9043224  83.0923224  34.4241663
  96.3273224  82.3383224  34.0901663  97.3903224  82.8123224  32.7441663
  97.5033224  85.4833224  33.2791663  98.3403224  85.4403224  33.9751663
  97.8533224  85.2433224  32.2751663  97.0783224  86.4873224  33.2851663
  94.0593224  83.6153224  33.3641663  93.5633224  83.9203224  34.4471663
  93.6453224  82.5973224  32.5961663  94.1683224  82.3903224  31.7571663
  92.4893224  81.7933224  32.9211663  91.8293224  82.3793224  33.5621663
  91.7203224  81.4243224  31.6381663  90.9473224  80.6943224  31.8751663
  92.4033224  80.9593224  30.9251663  91.0593224  82.6243224  30.9601663
  89.7903224  82.9923224  31.2591663  89.2153224  82.4223224  31.9891663
  89.1613224  84.0963224  30.6631663  88.1383224  84.3533224  30.9361663
  89.8513224  84.8783224  29.7431663  89.2213224  85.9913224  29.1251663
  89.9313224  86.6023224  28.7991663  91.1183224  84.5303224  29.4041663
  91.6533224  85.1133224  28.6541663  91.7483224  83.4133224  30.0181663
  92.7763224  83.1693224  29.7511663  92.8503224  80.5403224  33.6951663
  93.9873224  80.0753224  33.7091663  91.8503224  79.9303224  34.3061663
  90.9413224  80.3713224  34.2881663  92.0083224  78.6583224  34.9981663
  92.6753224  78.8073224  35.8471663  90.6463224  78.1673224  35.5421663
  90.0593224  77.7783224  34.7101663  90.1153224  79.0173224  35.9681663
  90.6673224  77.0923224  36.6001663  91.2213224  76.2283224  36.2311663
  91.3513224  77.5533224  37.9101663  91.3373224  76.7383224  38.6341663
  92.3833224  77.8343224  37.7021663  90.8163224  78.4103224  38.3181663
  89.2123224  76.6693224  36.9351663  89.2263224  75.8913224  37.6991663
  88.6583224  77.5323224  37.3051663  88.7283224  76.2863224  36.0361663
  92.6293224  77.6063224  34.0661663  92.1503224  77.4203224  32.9361663
  93.6573224  76.8863224  34.5281663  93.9373224  76.9573224  35.4961663
  94.3913224  75.9853224  33.6381663  93.7123224  75.5823224  32.8881663
  94.7743224  75.1403224  34.2111663  95.5483224  76.6093224  32.9171663
  96.2393224  75.9103224  32.1871663  95.7733224  77.9163224  33.0991663
  95.0953224  78.4063224  33.6661663  96.9153224  78.6623224  32.5401663
  97.5453224  77.9663224  31.9861663  96.4503224  79.8183224  31.6241663
  97.3153224  80.2623224  31.1311663  95.9833224  80.5963224  32.2281663
  95.4443224  79.4663224  30.5101663  94.5273224  79.0953224  30.9671663
  95.8803224  78.6983224  29.8711663  95.1043224  80.6943224  29.6461663
  94.9943224  81.8163224  30.1251663  94.9733224  80.4843224  28.3501663
  94.7523224  81.2463224  27.7391663  95.0943224  79.5643224  27.9771663
  97.7523224  79.2853224  33.6471663  97.2733224  79.5443224  34.7511663
  99.0443224  79.4803224  33.3701663  99.4153224  79.0613224  32.5291663
  99.9213224  80.2573224  34.2151663  99.3183224  80.7553224  34.9751663
 100.9103224  79.3473224  34.9731663 101.8063224  79.9143224  35.2261663
 101.2153224  78.5243224  34.3281663 100.2143224  78.8183224  36.2491663
  99.2133224  78.4663224  35.9981663 100.1433224  79.6203224  36.9841663
 100.8383224  77.7073224  36.9601663 101.8053224  78.0223224  37.3511663
 100.9783224  76.8713224  36.2761663  99.9263224  77.3393224  38.0561663
  99.0423224  76.9143224  37.8091663 100.1453224  77.5093224  39.3651663
 101.2853224  78.0303224  39.8091663 102.0043224  78.3053224  39.1541663
 101.4323224  78.1513224  40.8011663  99.1973224  77.1323224  40.2451663
  98.3333224  76.7263224  39.9141663  99.3503224  77.2553224  41.2351663
 100.6433224  81.3113224  33.3441663 100.7213224  81.1433224  32.1311663
 101.1593224  82.3533224  33.9711663 101.1233224  82.3993224  34.9791663
 101.7933224  83.4613224  33.2211663 101.1693224  83.6973224  32.3591663
 101.7993224  84.7843224  34.0111663 100.7823224  85.0273224  34.3221663
 102.1463224  85.5913224  33.3661663 102.6803224  84.7693224  35.2591663
 103.5803224  83.9113224  35.4011663 102.4743224  85.6763224  36.1121663
 103.1813224  83.0983224  32.6961663 103.6923224  83.7583224  31.7681663
 103.7913224  82.0653224  33.2621663 103.3183224  81.5753224  34.0081663
 105.1193224  81.6153224  32.8431663 105.2983224  81.9663224  31.8251663
 106.2023224  82.1743224  33.7901663 106.1773224  81.6293224  34.7341663
 105.9883224  83.2203224  34.0111663 107.5953224  82.0743224  33.2051663
 108.1733224  80.9933224  33.0991663 108.1433224  83.2233224  32.8201663
 109.0623224  83.2313224  32.4241663 107.6373224  84.0783224  32.9261663
 105.1703224  80.0933224  32.8351663 104.7723224  79.4803224  33.8001663
 105.6923224  79.4803224  31.7661663 106.2413224  80.0893224  30.5361663
 105.4483224  80.4893224  29.8871663 106.9823224  80.8683224  30.7681663
 106.9153224  78.9483224  29.8531663 106.8413224  79.0333224  28.7591663
 107.9873224  78.9093224  30.0971663 106.2333224  77.7033224  30.3211663
 105.3443224  77.4553224  29.7231663 106.8923224  76.8223224  30.2981663
 105.8253224  78.0133224  31.7621663 104.8553224  77.5613224  32.0181663
 106.8783224  77.4163224  32.7181663 106.9363224  76.1943224  32.8571663
 107.6913224  78.2653224  33.3561663 107.5183224  79.2533224  33.2401663
 108.8063224  77.8303224  34.2041663 108.8783224  76.7433224  34.1811663
 110.1253224  78.4243224  33.6591663 110.9553224  78.1053224  34.2881663
 110.0803224  79.5133224  33.7041663 110.4363224  78.0283224  32.2401663
 110.5613224  76.7173224  31.8491663 110.8393224  76.6663224  30.5561663
 110.9933224  75.7593224  29.9721663 110.8973224  77.9023224  30.0941663
 111.0883224  78.1673224  29.1381663 110.6553224  78.7773224  31.1271663
 110.6353224  79.8653224  31.0621663 108.6183224  78.2303224  35.6791663
 109.5853224  78.3893224  36.4121663 107.3623224  78.3243224  36.1151663
 106.6143224  78.1083224  35.4721663 107.0303224  78.7303224  37.4941663
 107.4583224  79.7163224  37.6771663 105.5033224  78.8713224  37.6391663
 105.1493224  79.6763224  36.9951663 105.2583224  79.1423224  38.6661663
 104.7173224  77.5933224  37.2821663 104.2883224  77.2083224  36.0371663
 104.4663224  77.7633224  35.1181663 103.6013224  76.0193224  36.1201663
 103.1963224  75.5183224  35.3421663 103.5563224  75.6263224  37.4341663
 102.9573224  74.5143224  38.0181663 102.4123224  73.7743224  37.4311663
 103.0733224  74.3673224  39.3811663 102.6433224  73.4893224  39.8631663
 103.7203224  75.2993224  40.1741663 103.7803224  75.1663224  41.2541663
 104.3173224  76.4473224  39.5911663 104.8283224  77.1843224  40.2101663
 104.2353224  76.6073224  38.1981663 107.6023224  77.7923224  38.5781663
 107.8093224  78.1983224  39.7331663 107.8643224  76.5363224  38.2061663
 107.4883224  76.2283224  37.3201663 108.6613224  75.5963224  39.0131663
 109.2863224  76.1713224  39.6971663 107.8143224  74.5893224  39.9101663
 107.2003224  75.1543224  40.6101663 106.8913224  73.7033224  39.0431663
 106.3273224  73.0273224  39.6861663 106.2003224  74.3343224  38.4841663
 107.4943224  73.1213224  38.3471663 108.7003224  73.7653224  40.6861663
 109.3993224  74.3323224  41.1331663 109.5743224  74.7563224  38.0931663
 109.2803224  74.5973224  36.9101663 110.6783224  74.2743224  38.6361663
 110.9403224  74.5823224  39.5611663 111.5213224  73.3193224  37.9451663
 111.4883224  73.5383224  36.8771663 112.9443224  73.4013224  38.4791663
 113.3423224  74.3993224  38.3001663 113.5763224  72.6953224  37.9401663
 112.9883224  73.1143224  39.8671663 112.5853224  73.8733224  40.3771663
 111.0373224  71.8663224  38.1331663 111.5703224  70.9613224  37.4981663
 110.0563224  71.6343224  39.0141663 109.6143224  72.4243224  39.4621663
 109.6003224  70.2643224  39.3521663 110.4763224  69.6243224  39.4581663
 108.8713224  70.2713224  40.6981663 108.3293224  69.3333224  40.8231663
 108.1383224  71.0783224  40.7101663 109.8383224  70.4543224  41.8911663
 111.0973224  70.3183224  41.7501663 109.3613224  70.7283224  43.0001663
 108.7163224  69.6673224  38.2611663 107.5733224  70.0573224  38.0981663
 109.2373224  68.6813224  37.5471663 110.1343224  68.3093224  37.8241663
 108.5643224  68.1193224  36.3841663 108.3103224  68.9333224  35.7041663
 109.4863224  67.1663224  35.6321663 110.4153224  67.6783224  35.3851663
 109.0163224  66.8703224  34.6941663 109.7383224  66.0433224  36.4361663
 109.0153224  65.9473224  37.1221663 107.2683224  67.4063224  36.7431663
 106.3263224  67.4753224  35.9661663 107.1963224  66.7643224  37.9081663
 108.0073224  66.7063224  38.5071663 105.9353224  66.1293224  38.3421663
 105.5983224  65.4553224  37.5541663 106.0933224  65.3123224  39.6161663
 105.1243224  64.9113224  39.9141663 106.4423224  65.9583224  40.4221663
 107.0783224  64.1473224  39.4611663 108.0983224  64.5313224  39.4581663
 106.8973224  63.6413224  38.5121663 106.9533224  63.1173224  40.5891663
 105.9033224  62.9913224  40.8521663 107.4893224  63.4743224  41.4691663
 107.5293224  61.7373224  40.1851663 108.5923224  61.8363224  39.9681663
 107.0283224  61.3843224  39.2851663 107.3603224  60.7093224  41.2551663
 107.7513224  59.8313224  40.9441663 107.8383224  61.0123224  42.0921663
 106.3773224  60.5883224  41.4541663 104.8233224  67.1483224  38.5721663
 103.6693224  66.8553224  38.3131663 105.1723224  68.3283224  39.0821663
 106.1423224  68.4863224  39.3141663 104.1973224  69.4003224  39.3171663
 103.3463224  68.9743224  39.8491663 104.8073224  70.5323224  40.1681663
 104.0613224  71.3113224  40.3251663 105.1233224  70.1333224  41.1321663
 105.6673224  70.9533224  39.6501663 103.7103224  69.9593224  37.9791663
 102.4863224  70.2113224  37.7901663 104.6413224  70.1623224  37.0521663
 105.6053224  70.0103224  37.3111663 104.3283224  70.5913224  35.6881663
 103.8153224  71.5513224  35.7371663 105.6123224  70.8473224  34.8981663
 105.3493224  71.0253224  33.8551663 106.2333224  69.9543224  34.9461663
 106.4683224  72.0403224  35.3761663 106.6943224  71.9243224  36.4361663
 107.7743224  72.0033224  34.6371663 108.3983224  72.8373224  34.9581663
 108.2873224  71.0653224  34.8511663 107.5883224  72.0803224  33.5661663
 105.7953224  73.3943224  35.2071663 106.4613224  74.1793224  35.5671663
 105.5733224  73.5613224  34.1531663 104.8683224  73.4143224  35.7801663
 103.3813224  69.5823224  34.9621663 102.4363224  69.9823224  34.2541663
 103.6533224  68.2783224  35.1291663 104.4513224  68.0173224  35.6901663
 102.8273224  67.2233224  34.5231663 102.7363224  67.4253224  33.4561663
 103.4553224  65.8183224  34.6911663 102.7383224  65.0593224  34.3771663
 103.6773224  65.6423224  35.7441663 104.7423224  65.5733224  33.9111663
 105.3913224  66.4423224  34.0191663 104.4953224  65.4203224  32.8611663
 105.5223224  64.3313224  34.4031663 104.9363224  63.3613224  34.9231663
 106.8393224  64.3573224  34.2331663 107.3983224  63.5823224  34.5311663
 107.2733224  65.1513224  33.8071663 101.4313224  67.2193224  35.1331663
 100.4313224  67.1123224  34.4081663 101.3373224  67.3143224  36.4511663
 102.1663224  67.3243224  37.0281663 100.0203224  67.4063224  37.0901663
  99.4543224  66.5123224  36.8291663 100.1403224  67.4363224  38.6011663
  99.1463224  67.5043224  39.0441663 100.6293224  66.5243224  38.9451663
 100.7313224  68.3003224  38.9021663  99.2293224  68.6253224  36.5791663
  98.0183224  68.5623224  36.4141663  99.9023224  69.7603224  36.3531663
 100.9053224  69.7853224  36.4721663  99.2053224  70.9743224  35.9341663
  98.3453224  71.1233224  36.5881663 100.0903224  72.2133224  36.1101663
 100.9663224  72.1283224  35.4681663 100.4433224  72.2653224  37.1391663
  99.3743224  73.4953224  35.7811663  98.3313224  73.9343224  36.6011663
  98.0573224  73.3443224  37.4761663  97.6383224  75.1143224  36.3171663
  96.8503224  75.4573224  36.9871663  97.9583224  75.8423224  35.1841663
  97.3833224  76.7303224  34.9251663  98.9813224  75.4743224  34.3741663
  99.2483224  76.0943224  33.5181663  99.7113224  74.2533224  34.6561663
 100.5353224  73.9493224  34.0091663  98.7023224  70.8323224  34.4811663
  97.6253224  71.3103224  34.1341663  99.4833224  70.1543224  33.6421663
 100.3923224  69.8583224  33.9671663  99.0733224  69.8263224  32.2771663
  98.8583224  70.7543224  31.7481663 100.1943224  69.0773224  31.5391663
  99.7623224  68.2793224  30.9361663 100.8623224  68.6143224  32.2651663
 101.0183224  69.9293224  30.6431663 101.9273224  69.3883224  30.3791663
 101.2713224  70.8513224  31.1671663 100.2563224  70.2763224  29.3661663
  99.5263224  69.4303224  28.8291663 100.4143224  71.5263224  28.8861663
  99.9373224  71.8063224  28.0521663 101.0083224  72.1743224  29.3631663
  97.7953224  68.9733224  32.2621663  96.8843224  69.2363224  31.4801663
  97.7513224  67.9593224  33.1071663  98.5583224  67.7773224  33.6861663
  96.5843224  67.1023224  33.2301663  96.3813224  66.6523224  32.2581663
  96.8093224  66.0043224  34.2501663  95.8583224  65.5273224  34.4871663
  97.1963224  66.4383224  35.1721663  97.7683224  64.9463224  33.7841663
  98.7823224  65.3443224  33.7941663  97.5213224  64.6553224  32.7621663
  97.6923224  63.7163224  34.6991663  97.8423224  62.8133224  34.1081663
  96.7053224  63.6673224  35.1621663  98.7393224  63.7563224  35.7931663
  98.4683224  64.5133224  36.5281663  99.7033224  64.0273224  35.3641663
  98.9013224  62.4383224  36.5171663  99.6103224  62.5303224  37.2311663
  98.0233224  62.1793224  36.9461663  99.1783224  61.7243224  35.8591663
  95.3513224  67.9243224  33.6421663  94.2773224  67.6873224  33.1251663
  95.5313224  68.8453224  34.5811663  96.4483224  68.9103224  35.0001663
  94.4673224  69.7643224  35.0321663  93.6463224  69.1713224  35.4371663
  95.0003224  70.6523224  36.1741663  95.9123224  71.1523224  35.8501663
  95.2553224  70.0293224  37.0301663  94.0253224  71.7373224  36.6641663
  92.7003224  71.4383224  36.9761663  92.3383224  70.4183224  36.8411663
  91.8213224  72.4223224  37.4611663  90.7953224  72.1573224  37.7161663
  92.2423224  73.7043224  37.6151663  91.5523224  74.4663224  37.9741663
  93.5663224  74.0413224  37.3081663  93.9113224  75.0663224  37.4391663
  94.4433224  73.0493224  36.8301663  95.4753224  73.3053224  36.5891663
  93.9363224  70.6003224  33.8511663  92.7093224  70.6513224  33.6191663
  94.8203224  71.2283224  33.0791663  95.7993224  71.2233224  33.3281663
  94.3963224  71.9303224  31.8681663  95.2633224  72.3793224  31.3851663
  93.7213224  72.7433224  32.1361663  93.6853224  71.0793224  30.8191663
  92.6603224  71.5233224  30.2401663  94.1823224  69.8763224  30.5381663
  95.0633224  69.5843224  30.9361663  93.4633224  68.9623224  29.6511663
  93.2993224  69.4643224  28.6961663  94.3113224  67.7023224  29.3891663
  93.7003224  66.9493224  28.8911663  94.6403224  67.2803224  30.3401663
  95.5383224  67.9913224  28.5271663  95.6023224  68.9933224  27.8181663
  96.5213224  67.1103224  28.6011663  97.3533224  67.2423224  28.0611663
  96.4333224  66.3123224  29.1971663  92.0793224  68.5793224  30.1621663
  91.1073224  68.4763224  29.3741663  91.9353224  68.3383224  31.4571663
  92.7433224  68.3703224  32.0631663  90.6393224  68.0293224  32.0251663
  90.2283224  67.1663224  31.5001663  90.7793224  67.6593224  33.4971663
  91.2193224  68.4943224  34.0421663  91.4563224  66.8103224  33.5961663
  89.4793224  67.2913224  34.1971663  88.7933224  68.1373224  34.1581663
  89.6823224  67.0583224  35.2431663  88.8343224  66.0833224  33.5241663
  89.5943224  65.3263224  33.3301663  88.3973224  66.3873224  32.5721663
  87.7403224  65.4543224  34.3741663  86.8923224  66.1363224  34.4381663
  88.1163224  65.2823224  35.3811663  87.2433224  64.1283224  33.8171663
  86.5213224  63.7593224  34.4191663  86.8673224  64.2713224  32.8901663
  88.0103224  63.4733224  33.7721663  89.6403224  69.2103224  31.8351663
  88.4613224  69.0083224  31.5191663  90.1103224  70.4433224  32.0261663
  91.0663224  70.5973224  32.3141663  89.2193224  71.6163224  31.8131663
  88.3333224  71.4953224  32.4361663  89.9053224  72.8933224  32.2711663
  89.2903224  73.7433224  31.9751663  90.8653224  72.9723224  31.7641663
  90.1753224  73.0353224  33.7641663  90.6253224  72.1163224  34.1411663
  91.1573224  74.1723224  34.0271663  91.3373224  74.2573224  35.0991663
  92.0983224  73.9653224  33.5171663  90.7393224  75.1073224  33.6541663
  88.8863224  73.3043224  34.5941663  89.1453224  73.3953224  35.6491663
  88.4213224  74.2293224  34.2541663  88.1883224  72.4773224  34.4611663
  88.7563224  71.7303224  30.3421663  87.6003224  72.0953224  30.0831663
  89.6103224  71.3873224  29.3751663  90.5673224  71.1613224  29.6071663
  89.1893224  71.3323224  27.9951663  88.7403224  72.2903224  27.7321663
  90.4153224  71.1493224  27.0521663  90.0683224  70.9543224  26.0371663
  90.9943224  70.2823224  27.3721663  91.3093224  72.3653224  27.0431663
  91.5473224  72.6493224  28.0681663  90.7893224  73.1963224  26.5651663
  92.6623224  72.1333224  26.2761663  92.4573224  71.9653224  25.2191663
  93.1613224  71.2493224  26.6771663  93.5973224  73.3163224  26.4031663
  93.7773224  73.5263224  27.4571663  93.1353224  74.1943224  25.9551663
  94.9423224  73.1063224  25.7351663  95.5123224  73.9313224  25.8591663
  95.4053224  72.3113224  26.1521663  94.8063224  72.9373224  24.7491663
  88.1133224  70.2523224  27.7511663  87.1523224  70.4743224  27.0081663
  88.2883224  69.0763224  28.3611663  89.1463224  68.9473224  28.8781663
  87.3203224  67.9943224  28.3161663  87.1473224  67.7283224  27.2731663
  87.8793224  66.7723224  29.0651663  88.0523224  67.0333224  30.1091663
  88.8403224  66.4903224  28.6351663  87.0453224  65.5473224  29.0711663
  86.9833224  65.1573224  28.0561663  86.0373224  65.8083224  29.3931663
  87.6633224  64.5193224  30.0171663  88.8963224  64.3513224  29.9551663
  86.9283224  63.9543224  30.8481663  85.9733224  68.4193224  28.9231663
  84.8993224  68.1443224  28.3861663  86.0303224  69.1213224  30.0411663
  86.9263224  69.3083224  30.4681663  84.8203224  69.6343224  30.6751663
  84.1403224  68.8003224  30.8481663  85.1373224  70.2953224  32.0541663
  86.0003224  70.9523224  31.9531663  83.9663224  71.1343224  32.5901663
  84.2403224  71.5703224  33.5511663  83.7363224  71.9303224  31.8831663
  83.0903224  70.4973224  32.7171663  85.5053224  69.2053224  33.0751663
  86.1333224  68.4543224  32.5951663  84.5993224  68.7043224  33.4141663
  86.2373224  69.7603224  34.2741663  86.4743224  68.9493224  34.9631663
  87.1603224  70.2393224  33.9471663  85.6073224  70.4913224  34.7781663
  84.1073224  70.6493224  29.7781663  82.9083224  70.5763224  29.6351663
  84.8343224  71.5743224  29.1371663  85.8343224  71.6253224  29.2731663
  84.1863224  72.5293224  28.2261663  83.4703224  73.1213224  28.7971663
  85.2043224  73.4993224  27.6311663  85.7973224  72.9853224  26.8741663
  85.8883224  73.8333224  28.4121663  84.4933224  74.7063224  27.0071663
  83.7403224  75.0713224  27.7041663  83.9833224  74.3853224  26.0991663
  85.4043224  75.8623224  26.6451663  86.1423224  76.3623224  27.4981663
  85.2843224  76.3373224  25.4951663  83.4133224  71.8103224  27.1021663
  82.2603224  72.1753224  26.7971663  83.9783224  70.7363224  26.5691663
  84.9003224  70.4443224  26.8601663  83.2683224  69.9523224  25.5431663
  83.0433224  70.6073224  24.7011663  84.1483224  68.7763224  24.9991663
  83.5313224  68.1083224  24.3971663  84.5383224  68.1963224  25.8361663
  85.3483224  69.2043224  24.1331663  85.9353224  69.9393224  24.6821663
  84.9773224  69.6803224  23.2261663  86.2853224  68.0313224  23.7181663
  86.0073224  66.8433224  24.0401663  87.3133224  68.3023224  23.0601663
  81.9543224  69.3983224  26.0721663  80.9123224  69.3503224  25.3561663
  81.9693224  68.9053224  27.3071663  82.8543224  68.8903224  27.7941663
  80.7893224  68.3963224  27.9731663  80.3423224  67.6263224  27.3441663
  81.1863224  67.7253224  29.2961663  81.6873224  68.4513224  29.9361663
  81.8943224  66.9203224  29.0981663  80.0553224  67.1273224  30.1081663
  79.6143224  66.2953224  29.5601663  79.2843224  67.8823224  30.2691663
  80.5383224  66.6013224  31.5091663  80.3673224  67.3683224  32.2641663
  81.6073224  66.3873224  31.4691663  79.8173224  65.3493224  31.9311663
  80.3313224  64.4783224  31.5231663  78.8033224  65.3633224  31.5351663
  79.7733224  65.2523224  33.4481663  79.2883224  64.4083224  33.7181663
  80.7153224  65.2293224  33.8121663  79.2873224  66.0543224  33.8231663
  79.7153224  69.4833224  28.1801663  78.5053224  69.2523224  27.9711663
  80.1553224  70.6923224  28.5601663  81.1473224  70.8523224  28.6671663
  79.2213224  71.7933224  28.8251663  78.4313224  71.4263224  29.4791663
  79.8713224  72.9443224  29.5751663  79.1143224  73.7033224  29.7721663
  80.6383224  73.3833224  28.9401663  80.5343224  72.6213224  30.9131663
  81.4143224  72.0013224  30.7431663  81.0653224  73.9173224  31.5931663
  81.5333224  73.6633224  32.5441663  81.7993224  74.3943224  30.9441663
  80.2363224  74.6023224  31.7681663  79.6673224  71.8633224  31.9231663
  80.2393224  71.6873224  32.8341663  78.7823224  72.4543224  32.1591663
  79.3623224  70.9073224  31.4961663  78.6063224  72.2783224  27.5201663
  77.4343224  72.6623224  27.5091663  79.3753224  72.2533224  26.4281663
  80.3533224  72.0193224  26.5191663  78.8393224  72.5543224  25.1111663
  78.4123224  73.5573224  25.1321663  79.9633224  72.5803224  24.0311663
  80.5113224  71.6393224  24.0681663  79.3643224  72.6513224  22.6171663
  80.1693224  72.6683224  21.8811663  78.7343224  71.7793224  22.4451663
  78.7663224  73.5573224  22.5201663  80.9253224  73.7473224  24.3081663
  81.7093224  73.7603224  23.5511663  80.3753224  74.6883224  24.2771663
  81.3753224  73.6223224  25.2931663  77.7273224  71.5553224  24.7201663
  76.6593224  71.9753224  24.2301663  77.9373224  70.2553224  24.9461663
  78.8343224  69.9673224  25.3101663  76.9193224  69.2463224  24.6861663
  76.6153224  69.3223224  23.6421663  77.4583224  67.8053224  24.9101663
  76.6313224  67.0963224  24.8681663  77.9013224  67.7333224  25.9021663
  78.5053224  67.3323224  23.9151663  79.4333224  67.8823224  24.0741663
  78.1483224  67.5083224  22.9001663  78.8463224  65.8123224  24.0271663
  79.6503224  65.5683224  23.3341663  77.9643224  65.2223224  23.7811663
  79.2883224  65.3773224  25.3591663  78.5773224  65.0963224  26.0221663
  80.5673224  65.3173224  25.7851663  81.5583224  65.6943224  25.0101663
  81.3693224  66.0363224  24.0781663  82.5093224  65.6423224  25.3451663
  80.8353224  64.8943224  27.0211663  80.0813224  64.6193224  27.6361663
  81.7903224  64.8483224  27.3421663  75.6893224  69.4653224  25.5681663
  74.5683224  69.3003224  25.1091663  75.8543224  69.8953224  26.8421663
  76.7783224  69.9783224  27.2411663  74.6813224  70.2483224  27.6651663
  74.0173224  69.3843224  27.7091663  75.0983224  70.6243224  29.0951663
  74.2473224  71.0573224  29.6201663  75.8793224  71.3823224  29.0581663
  75.6223224  69.4483224  29.9371663  76.4933224  69.0103224  29.4481663
  74.8423224  68.6933224  30.0331663  76.0373224  69.9173224  31.3651663
  75.1813224  70.3733224  31.8611663  76.8433224  70.6463224  31.2881663
  76.4953224  68.7553224  32.1401663  76.4123224  67.8423224  31.7121663
  77.0083224  68.8083224  33.3561663  77.2293224  69.9613224  33.9821663
  77.0033224  70.8343224  33.5271663  77.6233224  69.9633224  34.9121663
  77.3853224  67.7043224  33.9421663  77.2833224  66.8183224  33.4651663
  77.7783224  67.7353224  34.8711663  73.8843224  71.4283224  27.0721663
  72.6613224  71.3363224  26.9691663  74.5573224  72.4823224  26.6101663
  75.5663224  72.5143224  26.6541663  73.8433224  73.5963224  26.0381663
  73.0463224  73.8863224  26.7251663  74.7723224  74.7863224  25.8721663
  74.3703224  75.4593224  25.1141663  75.7463224  74.4423224  25.5211663
  74.9763224  75.5923224  27.1981663  74.1013224  75.6523224  28.0461663
  76.1763224  76.1803224  27.3651663  76.3633224  76.7083224  28.1941663
  76.8803224  76.0883224  26.6611663  73.1663224  73.2543224  24.7301663
  72.1463224  73.8513224  24.4161663  73.6923224  72.2683224  23.9861663
  74.5223224  71.8093224  24.3341663  73.1183224  71.8343224  22.7021663
  72.6123224  72.6853224  22.2431663  74.2313224  71.3943224  21.7301663
  73.7913224  70.8423224  20.8991663  74.9183224  70.7203224  22.2441663
  75.0313224  72.5733224  21.1661663  74.5883224  73.7043224  21.1621663
  76.2273224  72.2643224  20.6371663  76.8043224  72.9843224  20.2501663
  76.5403224  71.3153224  20.6301663  72.0633224  70.7373224  22.8971663
  71.4703224  70.2993224  21.8961663  71.8133224  70.2673224  24.1181663
  72.3383224  70.6763224  24.8781663  70.8263224  69.1983224  24.4131663
  70.8593224  68.4643224  23.6071663  71.2233224  68.4403224  25.6841663
  71.2423224  69.1303224  26.5281663  72.2293224  68.0373224  25.5681663
  70.3023224  67.2923224  26.0431663  69.1723224  67.2093224  25.4871663
  70.7043224  66.4813224  26.9301663  69.4273224  69.8013224  24.4921663
  69.1273224  70.5693224  25.3991663  68.5443224  69.5163224  23.5211663
  68.6763224  68.5973224  22.3681663  69.6273224  68.7413224  21.8351663
  68.5583224  67.5473224  22.6741663  67.5673224  68.9793224  21.4981663
  67.9233224  69.6643224  20.7151663  67.1683224  68.0913224  20.9861663
  66.5313224  69.6113224  22.2791663  66.0423224  70.4303224  21.7311663
  65.7413224  68.9023224  22.5681663  67.2363224  70.1673224  23.5471663
  67.3723224  71.2563224  23.4751663  66.4053224  69.8563224  24.7991663
  65.5443224  70.6603224  25.1881663  66.6843224  68.7283224  25.4501663
  67.4003224  68.1093224  25.0971663  65.9733224  68.3673224  26.6681663
  64.9013224  68.4073224  26.4681663  66.2263224  66.9053224  27.0821663
  66.0873224  66.2543224  26.2201663  65.4973224  66.6093224  27.8361663
  67.5163224  66.6493224  27.6091663  68.2033224  66.8123224  26.9021663
  66.2683224  69.3383224  27.8181663  65.4443224  69.4603224  28.7511663
  67.4073224  70.0483224  27.7521663  67.9993224  69.9523224  26.9391663
  67.8143224  70.9593224  28.8301663  67.2393224  70.7173224  29.7231663
  69.3083224  70.7583224  29.1881663  69.5343224  71.3453224  30.0781663
  69.9163224  71.1343224  28.3661663  69.7283224  69.2953224  29.4621663
  69.5433224  68.6913224  28.5741663  71.2203224  69.1973224  29.7441663
  71.4873224  68.1573224  29.9331663  71.7783224  69.5633224  28.8821663
  71.4653224  69.7993224  30.6181663  68.9743224  68.6673224  30.6051663
  69.3153224  67.6413224  30.7461663  69.1543224  69.2373224  31.5171663
  67.9073224  68.6683224  30.3811663  67.5463224  72.4343224  28.5031663
  67.9923224  73.3493224  29.2441663  66.8143224  72.7123224  27.4451663
  66.3633224  71.9523224  26.9551663  66.6343224  74.0783224  26.9591663
  67.6153224  74.5003224  26.7421663  65.7973224  74.0823224  25.6401663
  64.7853224  73.7383224  25.8511663  66.2383224  73.3853224  24.9271663
  65.6493224  75.4483224  24.8861663  65.2293224  75.2623224  23.8981663
  66.6333224  75.9083224  24.7931663  64.7653224  76.4423224  25.5551663
  63.8093224  76.0533224  26.2581663  64.9903224  77.7673224  25.2241663
  64.4323224  78.4883224  25.6371663  65.7103224  78.0053224  24.5721663
  65.9663224  74.9643224  28.0171663  66.2903224  76.1633224  28.1221663
  65.0053224  74.4443224  28.7551663  64.8093224  73.4543224  28.7111663
  64.2213224  75.2783224  29.6341663  63.4573224  74.6743224  30.1221663
  63.7043224  76.0393224  29.0491663  65.0083224  76.0013224  30.7341663
  64.7203224  77.1643224  31.0761663  65.9763224  75.3083224  31.2931663
  66.1473224  74.3573224  30.9991663  66.8183224  75.8953224  32.3431663
  66.2843224  76.7383224  32.7841663  67.0793224  74.9323224  33.5311663
  67.8193224  75.3723224  34.2001663  67.4923224  73.9953224  33.1561663
  65.8053224  74.6353224  34.3221663  64.8033224  75.3133224  34.1931663
  65.8403224  73.5713224  35.1281663  65.0353224  73.3283224  35.6711663
  66.6703224  73.0183224  35.1891663  68.1253224  76.4543224  31.8211663
  68.6353224  77.4463224  32.3621663  68.7073224  75.8493224  30.7961663
  68.2463224  75.0573224  30.3711663  69.9913224  76.2933224  30.2651663
  70.6183224  76.6133224  31.0981663  70.7833224  75.1253224  29.6171663
  71.6963224  75.5123224  29.1631663  70.1873224  74.6783224  28.8231663
  71.1573224  74.0353224  30.6251663  70.2723224  73.4473224  30.8711663
  71.5493224  74.4973224  31.5311663  72.2053224  73.0753224  30.1241663
  71.9183224  72.7043224  29.1411663  72.2923224  72.2383224  30.8161663
  73.4783224  73.7503224  30.0271663  73.6793224  74.2543224  29.1731663
  74.4233224  73.7773224  30.9561663  74.3283224  73.0993224  32.0621663
  73.5133224  72.5273224  32.2361663  75.0683224  73.1443224  32.7471663
  75.4943224  74.4493224  30.7181663  75.5993224  74.9393224  29.8401663
  76.2303224  74.4873224  31.4081663  69.9353224  77.4823224  29.3091663
  70.8773224  78.1863224  29.1921663  68.8143224  77.6663224  28.6591663
  68.0543224  77.0193224  28.8131663  68.6303224  78.7633224  27.7301663
  69.5283224  79.3803224  27.7411663  68.4263224  78.2453224  26.2621663
  67.8493224  78.9863224  25.7091663  67.8523224  77.3203224  26.2971663
  69.6483224  77.9543224  25.4321663  70.3503224  78.7853224  25.5141663
  70.4263224  76.7173224  25.9391663  71.2983224  76.5513224  25.3061663
  70.7513224  76.8873224  26.9661663  69.7803224  75.8413224  25.9031663
  69.2853224  77.7573224  23.9011663  70.1943224  77.5503224  23.3351663
  68.5933224  76.9213224  23.7961663  68.8183224  78.6653224  23.5181663
  67.4633224  79.6873224  28.0811663  67.5943224  80.9363224  27.9341663
  66.3273224  79.1253224  28.4611663  66.3003224  78.1183224  28.5391663
  65.1243224  79.8953224  28.7681663  65.3553224  80.6463224  29.5231663
  64.3683224  79.2353224  29.1931663  64.4943224  80.6173224  27.5661663
  64.9503224  80.5043224  26.4201663  63.4643224  81.4293224  27.8741663
  62.7413224  81.5403224  29.1181663  62.1243224  80.6613224  29.3541663
  63.3803224  81.8073224  29.9731663  61.8103224  82.7533224  28.7611663
  60.8793224  82.7243224  29.3471663  62.3013224  83.7103224  28.9911663
  61.5183224  82.6723224  27.3711663  60.6753224  81.9983224  27.1581663
  61.2653224  83.6513224  26.9381663  62.7873224  82.1343224  26.7321663
  62.5423224  81.4023224  25.9491663  63.6663224  83.2523224  26.1721663
  63.4113224  83.7403224  25.0891663  64.6723224  83.7113224  26.9371663
  64.7353224  83.4123224  27.9001663  65.6883224  84.6413224  26.4051663
  65.1793224  85.4293224  25.8491663  66.4633224  85.3853224  27.5531663
  67.1473224  86.1083224  27.1081663  65.4623224  86.1853224  28.4371663
  66.0073224  86.6983224  29.2301663  64.9403224  86.9183224  27.8231663
  64.7393224  85.5003224  28.8791663  67.2793224  84.3813224  28.4141663
  67.8063224  84.9213224  29.2001663  66.6033224  83.6533224  28.8631663
  68.0013224  83.8633224  27.7831663  66.6763224  83.9883224  25.4591663
  67.4653224  84.6753224  24.7961663  66.6563224  82.6373224  25.3831663
  66.0363224  82.1353224  26.0021663  67.4993224  81.8773224  24.4371663
  67.3803224  80.8143224  24.6451663  66.9853224  82.0243224  22.9821663
  67.6223224  81.4483224  22.3111663  67.0483224  83.0693224  22.6781663
  65.5353224  81.5483224  22.8151663  65.1833224  81.8303224  21.8231663
  64.9183224  82.0213224  23.5791663  65.3133224  80.0613224  22.9431663
  66.2243224  79.2883224  23.1521663  64.0293224  79.6433224  22.8371663
  63.8123224  78.6693224  22.9121663  63.2973224  80.3073224  22.6831663
  68.9583224  82.2343224  24.6041663  69.6623224  82.5393224  23.6311663
  69.4443224  82.1773224  25.8551663  68.8253224  81.8083224  26.5631663
  70.8183224  82.6203224  26.2471663  71.3313224  82.9843224  25.3571663
  70.7513224  83.7733224  27.2781663  70.2173224  83.4203224  28.1601663
  70.1873224  84.5963224  26.8421663  72.0853224  84.3503224  27.7621663
  72.5933224  83.6163224  28.3881663  73.0683224  84.6403224  26.5791663
  74.0003224  85.0483224  26.9721663  73.2763224  83.7143224  26.0431663
  72.6163224  85.3603224  25.8981663  71.8693224  85.6263224  28.5811663
  72.8333224  86.0133224  28.9121663  71.3703224  86.3743224  27.9651663
  71.2513224  85.4003224  29.4501663  71.5633224  81.4383224  26.8341663
  71.3713224  81.1363224  28.0261663  72.3193224  80.6933224  26.0081663
  72.5373224  80.8153224  24.5531663  71.6023224  81.0383224  24.0181663
  73.3043224  81.5703224  24.3251663  73.0313224  79.4683224  24.1521663
  72.2123224  78.7953224  23.8591663  73.7233224  79.5163224  23.2981663
  73.7593224  78.9123224  25.3991663  73.7403224  77.8133224  25.4481663
  74.8153224  79.2173224  25.4461663  72.9843224  79.5073224  26.5931663
  72.2213224  78.7683224  26.8781663  73.8503224  79.8353224  27.8111663
  74.6123224  80.8013224  27.7691663  73.7683224  79.0193224  28.8621663
  73.1643224  78.2123224  28.7981663  74.5173224  79.2513224  30.0951663
  74.4523224  80.3103224  30.3451663  73.9553224  78.4463224  31.2831663
  74.0953224  77.3813224  31.1001663  72.8823224  78.6253224  31.3691663
  74.6023224  78.7893224  32.6081663  74.2733224  79.9813224  33.2771663
  73.5253224  80.6533224  32.8571663  74.8893224  80.3343224  34.4871663
  74.6173224  81.2633224  34.9861663  75.8083224  79.4553224  35.0361663
  76.4433224  79.7953224  36.2361663  75.7613224  80.1583224  36.8631663
  76.1323224  78.2723224  34.4021663  76.8663224  77.6033224  34.8521663
  75.5413224  77.9393224  33.2211663  75.8093224  76.9933224  32.7501663
  75.9813224  78.8853224  29.8681663  76.3543224  77.7193224  29.9201663
  76.8413224  79.8903224  29.6121663  76.4923224  80.8373224  29.6431663
  78.2503224  79.6603224  29.2931663  78.4273224  78.5853224  29.2631663
  78.5873224  80.2633224  27.8631663  79.6553224  80.1683224  27.6711663
  77.8323224  79.5483224  26.7481663  78.0933224  79.9933224  25.7881663
  78.1023224  78.4923224  26.7441663  76.7603224  79.6473224  26.9131663
  78.1923224  81.6463224  27.8471663  78.7273224  82.1673224  28.5191663
  79.1783224  80.2543224  30.3621663  80.3933224  80.2753224  30.1761663
  78.6333224  80.7223224  31.5011663  77.6483224  80.5673224  31.6631663
  79.4193224  81.4473224  32.5101663  79.9363224  82.2713224  32.0191663
  78.5283224  82.1283224  33.5721663  79.1303224  82.3203224  34.4601663
  77.7263224  81.4433224  33.8441663  77.8913224  83.4493224  33.1421663
  77.3993224  83.3193224  32.1781663  76.8073224  83.8983224  34.1521663
  76.3703224  84.8403224  33.8221663  76.0273224  83.1383224  34.2111663
  77.2593224  84.0323224  35.1341663  78.9663224  84.5503224  33.0121663
  78.4953224  85.4843224  32.7041663  79.4603224  84.6923224  33.9741663
  79.7033224  84.2523224  32.2661663  80.4883224  80.5583224  33.1741663
  81.4743224  81.1103224  33.7161663  80.3283224  79.2303224  33.1621663
  79.4823224  78.8513224  32.7611663  81.3283224  78.3183224  33.7051663
  82.0483224  78.8983224  34.2811663  80.7493224  77.4263224  34.8261663
  81.4723224  76.6433224  35.0561663  79.8393224  76.9543224  34.4591663
  80.4163224  78.1593224  36.1191663  79.8223224  79.0453224  35.8931663
  79.6113224  77.2953224  37.0851663  79.3993224  77.8633224  37.9911663
  78.6733224  77.0003224  36.6141663  80.1843224  76.4053224  37.3411663
  81.7153224  78.5923224  36.8391663  81.4633224  79.1163224  37.7621663
  82.3123224  77.7113224  37.0741663  82.2873224  79.2553224  36.1901663
  82.1193224  77.5683224  32.6291663  82.8563224  76.6213224  32.9261663
  81.9853224  77.9783224  31.3581663  81.2153224  78.5663224  31.0711663
  82.9923224  77.5583224  30.3471663  82.9993224  76.4693224  30.2981663
  82.7453224  78.1083224  28.9111663  83.6473224  77.9833224  28.3131663
  82.5323224  79.1773224  28.9621663  81.6193224  77.5003224  28.0931663
  80.5913224  76.7283224  28.6301663  80.5663224  76.5233224  29.7001663
  79.5873224  76.2133224  27.7981663  78.7853224  75.6103224  28.2221663
  79.6193224  76.4533224  26.4401663  78.5713224  75.9703224  25.6811663
  78.2263224  75.1323224  26.0991663  80.6313224  77.1933224  25.8971663
  80.6543224  77.3893224  24.8251663  81.6283224  77.6933224  26.7121663
  82.4393224  78.2523224  26.2451663  84.3743224  78.0543224  30.7911663
  84.5353224  79.2583224  31.0571663  85.3743224  77.1503224  30.8641663
  85.2883224  75.6623224  30.8511663  84.3973224  75.2933224  31.3801663
  85.3253224  75.2613224  29.8271663  86.5263224  75.2443224  31.6001663
  86.3183224  75.0833224  32.6681663  86.9353224  74.3003224  31.2101663
  87.5393224  76.3693224  31.4251663  88.2533224  76.4393224  32.2591663
  88.1313224  76.2753224  30.5031663  86.6743224  77.6363224  31.3671663
  86.5443224  78.0293224  32.3861663  87.3603224  78.7233224  30.5421663
  88.0433224  79.5713224  31.1191663  87.2613224  78.6253224  29.2021663
  86.6723224  77.8943224  28.8301663  87.9663224  79.5273224  28.2671663
  88.7863224  80.0093224  28.8021663  88.5953224  78.7493224  27.0901663
  89.1883224  77.9223224  27.4771663  89.2693224  79.4053224  26.5391663
  87.6213224  78.2303224  26.1861663  87.0733224  77.5403224  26.6541663
  87.0913224  80.6753224  27.6941663  85.8613224  80.5523224  27.6081663
  87.7623224  81.7253224  27.2211663  88.7643224  81.7003224  27.3421663
  87.1593224  82.8673224  26.5631663  86.4023224  82.5053224  25.8661663
  86.5363224  83.8213224  27.6021663  87.3213224  84.2303224  28.2371663
  85.8533224  83.2643224  28.2441663  85.8193224  84.9063224  26.9631663
  86.4803224  85.5683224  26.6271663  88.1773224  83.6703224  25.7641663
  89.3083224  83.7853224  26.2091663  87.7163224  84.3773224  24.7121663
  86.8143224  84.1323224  24.3311663  88.4823224  85.4953224  24.0991663
  89.5413224  85.2373224  24.1121663  88.0783224  85.7333224  22.6021663
  88.6643224  86.5563224  22.1931663  87.0283224  86.0223224  22.5501663
  88.2473224  84.5813224  21.6511663  87.8113224  84.8503224  20.6901663
  87.7023224  83.7213224  22.0381663  89.6863224  84.1633224  21.4251663
  90.6033224  85.0213224  21.4551663  89.9163224  82.9663224  21.1431663
  88.2293224  86.7673224  24.9491663  87.4553224  86.7913224  25.9371663
  88.8733224  87.8583224  24.5961663  89.5243224  87.7663224  23.8291663
  88.7043224  89.1643224  25.2351663  88.8883224  89.0533224  26.3041663
  89.7933224  90.1423224  24.6921663  90.7163224  89.5923224  24.5061663
  90.0103224  90.8993224  25.4451663  89.4673224  90.9023224  23.3901663
  90.1803224  91.7163224  23.2691663  88.4723224  91.3373224  23.4751663
  89.4893224  90.0663224  22.0911663  90.0993224  88.9533224  22.0541663
  88.9383224  90.5703224  21.0511663  87.2733224  89.7123224  25.0661663
  86.6033224  89.3673224  24.0521663  86.8713224  90.6313224  25.9321663
  87.4313224  90.8113224  26.7531663  85.6563224  91.3803224  25.7331663
  85.3193224  91.2603224  24.7041663  85.8543224  92.4413224  25.8841663
  84.5273224  90.9733224  26.6521663  84.7393224  90.2823224  27.6751663
  83.3193224  91.3313224  26.2721663  83.2393224  91.7763224  25.3691663
  82.1363224  91.1263224  27.0581663  82.4293224  91.0143224  28.1011663
  81.2663224  92.3953224  26.9011663  80.6283224  92.2733224  26.0261663
  81.9223224  93.2473224  26.7301663  80.3683224  92.7233224  28.1001663
  80.9663224  92.7313224  29.0111663  79.7523224  94.0693224  27.9761663
  79.1243224  94.2633224  28.8451663  80.5363224  94.8243224  27.9201663
  79.1443224  94.1093224  27.0731663  79.3203224  91.6263224  28.1351663
  78.6423224  91.7973224  28.9711663  78.7553224  91.6323224  27.2031663
  79.8093224  90.6593224  28.2561663  81.4723224  89.8503224  26.5401663
  80.5053224  89.8483224  25.7261663  82.0023224  88.7173224  26.9981663
  82.5973224  88.7493224  27.8141663  81.7463224  87.4273224  26.3521663
  81.2683224  87.6113224  25.3901663  83.0333224  86.6453224  26.1451663
  82.8103224  85.7053224  25.6411663  84.0743224  87.3903224  25.2981663
  84.9663224  86.7723224  25.1911663  83.6583224  87.6013224  24.3131663
  84.3383224  88.3263224  25.7881663  83.5333224  86.3033224  27.4661663
  84.4123224  85.8303224  27.3841663  80.7863224  86.4523224  27.0651663
  80.3623224  85.4453224  26.4611663  80.4013224  86.7313224  28.2821663
  80.7333224  87.5853224  28.7071663  79.4933224  85.8363224  29.0611663
  79.3293224  86.2803224  30.0441663  78.1023224  85.7983224  28.3971663
  78.1513224  85.2053224  27.4851663  77.8063224  86.8083224  28.1151663
  76.9853224  85.2193224  29.2581663  76.5823224  85.8333224  30.4551663
  77.1203224  86.7133224  30.8101663  75.5103224  85.3433224  31.1981663
  75.2053224  85.8503224  32.1131663  74.8333224  84.2103224  30.7691663
  74.0273224  83.7953224  31.3721663  75.1963224  83.6113224  29.5641663
  74.6553224  82.7353224  29.2071663  76.2603224  84.1403224  28.8171663
  76.5483224  83.6743224  27.8741663  80.0733224  84.4173224  29.3011663
  79.3383224  83.4783224  29.4991663  81.3773224  84.3013224  29.2911663
  81.9203224  85.1363224  29.1221663  82.0703224  83.0353224  29.5101663
  81.5423224  82.4813224  30.2871663  82.0503224  82.1843224  28.2121663
  81.0183224  81.9743224  27.9311663  82.5403224  81.2293224  28.3961663
  82.7413224  82.8513224  27.0201663  83.7953224  83.0093224  27.2521663
  82.2673224  83.8113224  26.8151663  82.6553224  82.0003224  25.7561663
  82.8103224  82.6313224  24.8821663  81.6723224  81.5343224  25.6971663
  83.6753224  80.9823224  25.8111663  84.3583224  81.0403224  26.5551663
  83.7893224  79.9683224  24.9571663  82.9163224  79.8003224  23.9641663
  82.1503224  80.4493224  23.8491663  83.0203224  79.0243224  23.3261663
  84.7893224  79.1433224  25.1321663  85.4383224  79.2893224  25.8931663
  84.9133224  78.3603224  24.5071663  83.4983224  83.2493224  29.9671663
  83.9933224  84.3183224  29.9401663  84.1233224  82.1723224  30.4081663
  83.6003224  81.3113224  30.4791663  85.5203224  82.1833224  30.7901663
  86.0333224  82.9903224  30.2691663  85.9903224  81.2503224  30.4781663
  85.7583224  82.3573224  32.2831663  85.1583224  83.2453224  32.8961663
  86.6403224  81.5293224  32.8591663  87.1233224  80.8733224  32.2621663
  86.9323224  81.5343224  34.3061663  86.2303224  82.2063224  34.7981663
  86.7413224  80.1333224  34.9251663  87.4283224  79.4313224  34.4551663
  87.0253224  80.1913224  36.4301663  86.8893224  79.2013224  36.8641663
  88.0503224  80.5213224  36.5941663  86.3383224  80.8923224  36.9031663
  85.3473224  79.5633224  34.6891663  85.1123224  79.6043224  33.6251663
  84.6113224  80.1753224  35.2091663  85.1923224  78.0963224  35.1671663
  84.1763224  77.7543224  34.9681663  85.9003224  77.4623224  34.6321663
  85.3903224  78.0393224  36.2361663  88.3673224  82.0323224  34.4991663
  89.3053224  81.2453224  34.2961663  88.5493224  83.2933224  34.9101663
  87.5743224  84.3953224  35.0541663  86.8283224  84.3943224  34.2461663
  87.0813224  84.3733224  36.0371663  88.4333224  85.6363224  34.9471663
  88.6703224  85.9193224  33.9111663  87.9893224  86.5213224  35.4251663
  89.6603224  85.2363224  35.6581663  90.5293224  85.8363224  35.3491663
  89.5613224  85.3513224  36.7471663  89.8913224  83.7473224  35.3021663
  90.5693224  83.6573224  34.4411663  90.4333224  82.9513224  36.4901663
  89.6603224  82.3903224  37.2751663  91.7443224  82.9673224  36.6671663
  92.3663224  83.3623224  35.9761663  92.3153224  82.3933224  37.9061663
  91.9643224  81.3643224  38.0051663  93.8603224  82.4173224  37.8651663
  94.2513224  82.4053224  38.8821663  94.1973224  83.3423224  37.3951663
  94.4653224  81.2513224  37.1091663  93.9643224  80.1243224  37.1811663
  95.6033224  81.5003224  36.4571663  96.0523224  80.7723224  35.9391663
  96.0063224  82.4143224  36.4861663  91.8793224  83.0973224  39.1681663
  91.8743224  82.4613224  40.2551663  91.5953224  84.3843224  39.0881663
  91.4173224  84.7613224  38.1681663  91.5273224  85.2693224  40.2431663
  91.3593224  84.6633224  41.1341663  92.8343224  86.0323224  40.3961663
  93.6653224  85.3283224  40.4251663  92.8313224  86.5733224  41.3421663
  92.9913224  86.9503224  39.2911663  93.3833224  87.7983224  39.6331663
  90.3773224  86.2783224  40.1691663  89.6823224  86.3553224  39.1431663
  90.2043224  87.0333224  41.2581663  90.7703224  86.7853224  42.0571663
  89.2823224  88.1543224  41.3641663  88.3853224  87.9193224  40.7921663
  88.7943224  88.3683224  42.8401663  89.6573224  88.4853224  43.4951663
  87.9193224  89.6223224  42.9501663  87.5933224  89.7483224  43.9821663
  88.4943224  90.4943224  42.6421663  87.0473224  89.5153224  42.3041663
  88.0753224  87.1173224  43.3221663  88.5113224  86.2393224  42.8441663
  87.0283224  87.1623224  43.0251663  88.1563224  86.9293224  44.9261663
  87.6263224  86.0203224  45.2131663  89.2003224  86.8523224  45.2311663
  87.6963224  87.7863224  45.4161663  90.0143224  89.3243224  40.8021663
  90.6913224  90.0493224  41.5261663  89.8883224  89.5143224  39.4841663
  89.1753224  88.9813224  39.0061663  90.7273224  90.4493224  38.7101663
  91.5343224  90.8033224  39.3531663  91.3903224  89.7283224  37.5521663
  91.9263224  88.8563224  37.9251663  92.1223224  90.3863224  37.0851663
  90.3573224  89.3433224  36.6101663  90.7923224  88.9653224  35.8001663
  90.0033224  91.6923224  38.2121663  90.6463224  92.5523224  37.6111663
  88.7093224  91.7763224  38.4871663  88.2953224  91.0183224  39.0111663
  87.8703224  92.8953224  38.0731663  88.4243224  93.8193224  38.2301663
  87.5263224  92.8023224  36.5411663  88.4473224  92.7093224  35.9661663
  86.6243224  91.5553224  36.2751663  86.3893224  91.4963224  35.2131663
  87.1523224  90.6533224  36.5801663  85.7003224  91.6453224  36.8471663
  86.9203224  94.1223224  36.0381663  85.9153224  94.2393224  36.4431663
  86.8323224  94.0913224  34.9531663  87.6833224  95.3463224  36.3881663
  87.1713224  96.2213224  35.9871663  87.7543224  95.4333224  37.4731663
  88.6833224  95.2853224  35.9621663  86.6093224  92.8433224  38.9641663
  85.9283224  93.9043224  39.0791663  86.3073224  91.8223224  39.5171663
  84.3533224  91.2813224  40.6941663  83.7503224  93.2153224  40.0961663
  83.6093224  93.2283224  39.1461663  34.1209408  43.6749408  13.7610000
  34.0209408  44.4239408  14.3480000  34.6659408  43.0579408  14.2490000
  49.4019408  47.0039408   3.4620000  49.3069408  46.1259408   3.8320000
  48.6369408  47.1089408   2.8970000  51.2879408  35.2629408  29.9310000
  50.5409408  34.9539408  30.4440000  50.9199408  35.9259408  29.3470000
  36.9639408  57.2739408   4.1330000  36.2589408  56.7169408   4.4630000
  36.9889408  58.0129408   4.7410000  51.1249408  31.1489408  21.7350000
  50.9649408  30.2999408  21.3230000  51.6349408  31.6379408  21.0890000
  36.7109408  48.7099408  21.4700000  36.3839408  49.3649408  22.0880000
  37.6529408  48.8729408  21.4250000  41.8849408  41.9679408  12.0810000
  41.2899408  41.2449408  12.2800000  42.7569408  41.5759408  12.1090000
  35.8789408  36.9689408   8.7010000  35.4139408  36.1719408   8.4480000
  35.9029408  37.4959408   7.9020000  45.1049408  47.8279408  15.6050000
  44.2939408  47.6459408  15.1300000  45.7899408  47.7719408  14.9380000
  30.6359408  44.0729408   8.5360000  29.8129408  44.3929408   8.1640000
  30.9089408  43.3719408   7.9450000  48.8559408  48.6129408   9.2840000
  48.4689408  48.1719408  10.0410000  48.1489408  49.1559408   8.9360000
  39.0639408  38.6819408  17.8260000  38.4579408  38.2489408  18.4280000
  39.3939408  37.9759408  17.2700000  41.2259408  41.3479408   5.7040000
  40.6419408  41.7979408   6.3140000  41.6789408  40.6969408   6.2400000
  47.4669408  45.2269408  17.9080000  47.9479408  45.1439408  18.7320000
  48.1319408  45.1079408  17.2300000  52.0799408  39.5039408   6.3360000
  51.9909408  39.7379408   5.4120000  52.7389408  40.1109408   6.6740000
  35.6149408  43.6859408   8.9500000  35.7649408  43.7169408   9.8950000
  34.7539408  44.0859408   8.8300000  59.3079408  48.9599408  15.2020000
  59.6479408  49.5329408  15.8900000  59.8979408  49.0979408  14.4610000
  32.5329408  37.1629408  28.8470000  33.2739408  37.5749408  29.2930000
  32.8629408  36.9599408  27.9720000  42.9309408  55.5519408  14.1980000
  43.8639408  55.3599408  14.1090000  42.5239408  55.1209408  13.4470000
  58.0369408  35.5629408   5.5490000  57.0969408  35.6829408   5.4130000
  58.2159408  34.6789408   5.2300000  48.3629408  51.3589408   0.6810000
  47.7089408  52.0489408   0.5670000  48.2789408  50.8169408  -0.1030000
  40.6849408  45.9839408   6.6650000  41.1339408  46.8249408   6.7490000
  39.8769408  46.0929408   7.1670000  48.4319408  34.8569408  25.0460000
  48.1149408  34.5139408  25.8810000  48.3719408  34.1159408  24.4430000
  58.7999408  39.9389408  15.7730000  57.8609408  39.9999408  15.5990000
  58.8569408  39.5959408  16.6650000  32.3889408  50.7699408   3.8460000
  33.1819408  51.3059408   3.8470000  32.6729408  49.9199408   4.1820000
  47.9779408  44.4559408  10.6650000  47.2519408  44.3639408  10.0480000
  47.7039408  43.9559408  11.4340000  39.6549408  54.0029408  30.1860000
  39.0479408  54.5939408  29.7410000  40.5229408  54.3469408  29.9750000
  43.5299408  44.6779408   0.5350000  42.9009408  43.9769408   0.7060000
  43.0779408  45.2629408  -0.0730000  46.9329408  52.0279408  13.3670000
  47.2779408  52.9039408  13.1980000  47.6629408  51.4399408  13.1730000
  34.4319408  58.7859408  26.2340000  34.8979408  58.1089408  25.7430000
  33.7839408  59.1269408  25.6170000  41.7599408  53.1179408   8.5430000
  41.6899408  53.8819408   7.9720000  42.0759408  52.4179408   7.9710000
  44.5309408  56.0489408   1.8910000  45.1549408  56.0429408   1.1650000
  44.9719408  55.5639408   2.5890000  31.5889408  37.8679408   5.1380000
  31.9129408  37.0799408   4.7030000  32.3749408  38.2939408   5.4810000
  34.3779408  31.6949408  16.6380000  33.4469408  31.8319408  16.4640000
  34.7679408  31.5709408  15.7730000  46.9779408  44.3809408  28.3850000
  47.8199408  43.9829408  28.6060000  47.1409408  44.8459408  27.5640000
  41.0189408  32.1809408  18.1460000  40.7569408  33.1019408  18.1390000
  41.6919408  32.1279408  18.8240000  45.1549408  30.6799408   8.8720000
  44.7649408  31.4279408   8.4200000  45.0899408  29.9599408   8.2450000
  45.4189408  44.0349408  13.0950000  44.8099408  43.9809408  13.8320000
  44.8679408  44.2559408  12.3440000  36.8749408  56.9259408   9.7580000
  37.0919408  57.8089408  10.0560000  37.0169408  56.9499408   8.8120000
  42.2769408  39.0759408  26.9600000  41.8759408  39.8269408  26.5240000
  42.9859408  39.4519408  27.4820000  58.5349408  45.5709408   7.6430000
  58.4489408  46.1489408   6.8850000  58.1879408  46.0809408   8.3750000
  38.3539408  36.3839408   3.5020000  39.0179408  36.9059408   3.0520000
  37.9879408  36.9769408   4.1590000  54.3849408  39.4109408  17.3650000
  54.7209408  38.5179408  17.2950000  54.2909408  39.5589408  18.3060000
  37.7939408  43.7699408   7.0920000  37.1589408  43.5089408   7.7590000
  38.3649408  43.0079408   6.9930000  39.0859408  32.8069408  12.3010000
  39.2659408  33.2629408  11.4790000  39.7729408  33.1059408  12.8980000
  45.8509408  43.9929408   9.0110000  45.1649408  44.5659408   8.6690000
  45.4019408  43.1709408   9.2080000  37.6489408  47.3009408  12.5020000
  37.1329408  47.8939408  13.0490000  37.6139408  46.4609408  12.9600000
  52.4549408  33.6049408   2.6640000  51.6819408  33.5749408   2.1000000
  52.7979408  34.4919408   2.5530000  51.2289408  50.5009408  14.9470000
  50.8759408  51.0379408  15.6570000  51.9479408  51.0209408  14.5870000
  37.2079408  38.2029408  29.8520000  37.3599408  38.7419408  30.6280000
  38.0649408  38.1409408  29.4310000  40.4099408  55.8839408  26.7950000
  40.4019408  56.2829408  25.9250000  39.6159408  56.2129408  27.2170000
  41.1919408  56.2969408   1.5580000  41.2509408  57.2469408   1.6600000
  41.6389408  55.9449408   2.3270000  34.6869408  33.6109408  12.3470000
  33.8339408  33.9499408  12.0730000  35.2309408  34.3909408  12.4540000
  43.1469408  42.3189408  27.0580000  43.5739408  42.0469408  26.2450000
  43.8619408  42.4039408  27.6880000  41.3659408  50.8169408  12.9800000
  41.3449408  51.5859408  12.4090000  42.2869408  50.5579408  12.9990000
  45.5709408  34.5019408  23.2080000  46.1229408  35.1429408  22.7600000
  45.2669408  33.9189408  22.5130000  44.5329408  49.5259408   7.8070000
  44.0209408  48.9609408   8.3850000  43.9069408  50.1799408   7.4950000
  34.9169408  44.0799408   6.0540000  35.2429408  43.2809408   6.4690000
  34.3959408  44.5079408   6.7330000  41.9419408  34.9309408  18.4310000
  42.8109408  35.3169408  18.3240000  41.7659408  34.9919408  19.3700000
  32.9999408  53.7209408   4.9930000  32.5599408  53.1309408   5.6050000
  33.7909408  53.2499408   4.7310000  39.3909408  35.9979408  13.5600000
  38.4679408  35.8209408  13.7410000  39.5449408  35.6099408  12.6990000
  36.4589408  49.0469408  14.2110000  35.7969408  48.9559408  14.8960000
  37.0899408  49.6709408  14.5690000  42.7269408  34.7419408  13.0350000
  43.5559408  34.2759408  12.9230000  42.3699408  34.4009408  13.8560000
  40.9189408  45.5149408  11.9010000  40.0709408  45.1079408  11.7250000
  40.7289408  46.4519408  11.9560000  41.2779408  38.6519408   9.3500000
  41.3409408  37.9429408   9.9910000  40.6729408  39.2789408   9.7440000
  37.3769408  58.8119408   1.6800000  36.6809408  58.2869408   1.2850000
  37.2869408  58.6599408   2.6210000  45.6899408  48.6069408   4.5490000
  45.8669408  48.6029408   3.6090000  46.2479408  47.9129408   4.9010000
  36.0069408  30.8799408   4.4630000  36.8559408  30.4709408   4.2940000
  36.1609408  31.8149408   4.3310000  39.4119408  38.7209408   6.5640000
  39.9009408  38.4549408   7.3430000  40.0189408  39.2819408   6.0810000
  40.9679408  48.3959408  15.9660000  41.6029408  47.8829408  15.4660000
  40.1389408  47.9329408  15.8490000  39.0729408  40.0809408   9.9790000
  39.3089408  40.3209408  10.8750000  38.1399408  39.8699408  10.0250000
  38.6629408  53.0849408   5.7270000  39.1639408  52.7029408   6.4480000
  39.3049408  53.2099408   5.0280000  42.1909408  33.0269408   6.6490000
  42.5829408  33.5069408   7.3790000  42.8259408  32.3399408   6.4440000
  32.7639408  40.3209408  15.9390000  32.1979408  40.7929408  15.3280000
  32.1579408  39.8679408  16.5260000  33.7929408  35.9289408  18.5460000
  34.5359408  35.3939408  18.2680000  33.0419408  35.5539408  18.0850000
  37.2649408  35.4869408  10.7700000  36.6499408  36.0649408  10.3180000
  37.6409408  34.9459408  10.0760000  34.4899408  34.3149408   8.6110000
  33.8189408  33.6769408   8.8510000  34.7519408  34.0669408   7.7250000
  48.2059408  41.1969408  11.0920000  48.7899408  41.1579408  10.3350000
  47.3289408  41.0939408  10.7250000  42.6159408  32.7419408   2.6460000
  42.2479408  33.1119408   1.8440000  43.2749408  33.3789408   2.9240000
  53.6789408  49.2509408  25.6230000  52.9449408  48.9459408  26.1550000
  54.0749408  49.9529408  26.1400000  33.9959408  40.0319408  19.2360000
  34.7059408  39.4889408  18.8920000  34.1359408  40.8909408  18.8370000
  43.6049408  39.6929408   3.1680000  44.0819408  38.9459408   3.5280000
  44.2209408  40.4239408   3.2310000  40.6809408  41.2849408   0.4750000
  40.9629408  41.9649408  -0.1370000  40.5939408  41.7389408   1.3140000
  36.1979408  58.7859408   7.3920000  35.6229408  59.3219408   7.9370000
  36.9389408  59.3569408   7.1890000  45.6389408  36.6119408   8.9870000
  45.6199408  36.6119408   9.9440000  46.5409408  36.8459408   8.7660000
  46.1629408  50.3279408   9.8410000  45.8969408  50.1039408   8.9500000
  45.7949408  49.6309408  10.3840000  48.8369408  49.6889408  13.6890000
  49.6529408  49.8079408  14.1740000  49.0429408  49.9709408  12.7980000
  37.3569408  44.9479408  14.1060000  36.7409408  44.6609408  14.7800000
  37.7119408  44.1349408  13.7450000  52.1589408  41.9809408   8.6940000
  52.2029408  42.9319408   8.6020000  52.8179408  41.6489408   8.0840000
  31.5759408  31.8369408  12.3790000  31.6699408  31.3979408  11.5340000
  31.7809408  32.7539408  12.1980000  39.7979408  43.5629408  20.7020000
  39.9119408  42.6129408  20.6900000  40.2249408  43.8659408  19.9000000
  35.8779408  41.1339408  28.3530000  36.6849408  41.2089408  28.8610000
  35.1959408  40.9759408  29.0060000  42.6309408  43.1459408  14.3340000
  42.2629408  43.3379408  13.4710000  42.9819408  42.2589408  14.2530000
  40.1429408  38.5439408   2.9460000  40.7999408  38.6049408   2.2530000
  40.5939408  38.8529408   3.7320000  34.7069408  45.4199408  23.1280000
  34.5639408  45.8999408  22.3120000  34.9709408  46.0909408  23.7570000
  32.9149408  46.4549408  14.3630000  33.5279408  47.1049408  14.7050000
  32.2449408  46.3749408  15.0420000  39.9729408  31.6209408   9.1660000
  40.8859408  31.7839408   8.9290000  40.0159408  31.2549408  10.0490000
  42.5159408  39.3919408   7.0440000  42.9239408  38.9559408   6.2950000
  42.6179408  38.7729408   7.7670000  50.6819408  44.5549408  10.8580000
  50.4699408  44.9719408  11.6930000  49.8309408  44.3559408  10.4670000
  48.2509408  40.8129408  27.5970000  47.9399408  40.8729408  26.6940000
  49.1989408  40.9269408  27.5330000  35.0659408  42.1979408  18.1450000
  35.8319408  41.7159408  17.8330000  34.6889408  42.5859408  17.3550000
  34.4699408  36.9909408  21.0950000  34.3759408  36.7169408  20.1820000
  34.4599408  37.9469408  21.0610000  46.7989408  38.8369408  21.9130000
  46.1259408  38.2629408  21.5470000  47.3839408  38.2479408  22.3890000
  47.3339408  31.3149408  17.3720000  47.1459408  32.1649408  17.7700000
  46.5919408  30.7639408  17.6200000  34.3569408  54.6489408  13.1330000
  35.1819408  55.0809408  12.9100000  33.8739408  55.2999408  13.6410000
  36.0859408  44.8579408  11.4430000  35.4669408  45.3769408  10.9300000
  35.9959408  45.1919408  12.3360000  43.4409408  46.1729408   8.5040000
  43.3789408  45.9409408   7.5780000  42.7799408  46.8539408   8.6260000
  38.5019408  34.1379408   8.6120000  38.8629408  34.4539408   7.7840000
  38.9809408  33.3279408   8.7890000  39.2219408  59.9579408  19.5540000
  39.1209408  59.3189408  18.8490000  39.7729408  60.6449408  19.1780000
  35.8979408  56.1729408  15.7840000  34.9769408  56.4009408  15.6590000
  36.2559408  56.1269408  14.8980000  34.1719408  38.0399408   6.5580000
  33.5999408  38.3309408   7.2680000  34.3229408  38.8259408   6.0330000
  50.9309408  38.1219408  17.8530000  50.4899408  38.4399408  18.6410000
  51.2959408  38.9089408  17.4480000  33.5469408  59.1949408  14.3880000
  33.4529408  58.7309408  13.5560000  34.0779408  59.9629408  14.1760000
  37.6459408  45.5889408   0.5610000  38.1379408  44.9059408   1.0160000
  38.1499408  46.3889408   0.7110000  39.7719408  32.8839408   5.6410000
  40.6209408  32.7349408   6.0590000  39.7999408  32.3549408   4.8440000
  39.0259408  46.3989408  15.6100000  38.7289408  46.0099408  16.4320000
  38.4029408  46.0809408  14.9560000  54.9449408  40.7089408  22.4340000
  54.4059408  40.1399408  22.9830000  54.3479408  41.3989408  22.1430000
  42.9919408  36.0789408  20.9050000  43.2669408  36.9929408  20.8340000
  43.4549408  35.7489408  21.6750000  43.9919408  40.0189408  29.0960000
  44.7189408  39.4589408  29.3680000  44.3539408  40.5539408  28.3890000
  45.0069408  37.1169408  28.0480000  45.2319408  37.0419408  28.9750000
  44.1499408  36.6969408  27.9740000  49.7759408  47.0209408   6.7930000
  49.6259408  47.7959408   6.2530000  49.1299408  47.0889408   7.4960000
  54.9269408  45.3199408   9.5870000  55.3159408  44.5869408  10.0650000
  55.3279408  45.2809408   8.7190000  35.7419408  41.5499408  12.2860000
  35.5099408  41.7689408  13.1890000  36.5849408  41.9799408  12.1450000
  59.0709408  32.3679408  13.5800000  59.1899408  32.7229408  14.4610000
  59.9599408  32.2269408  13.2550000  45.3469408  37.8619408  13.5700000
  45.5059408  37.1419408  12.9600000  46.2199408  38.1279408  13.8590000
  43.9419408  57.7469408  11.2050000  43.6119408  57.6369408  12.0970000
  43.2129408  58.1429408  10.7270000  31.1999408  47.8119408  29.4490000
  31.9049408  48.0979408  30.0290000  31.6469408  47.3699408  28.7280000
  32.4759408  43.4329408  11.5170000  32.9669408  43.3179408  12.3310000
  32.3929408  44.3819408  11.4200000  34.0809408  40.9719408  10.1910000
  33.3579408  41.5829408  10.3280000  34.6869408  41.1519408  10.9110000
  32.4699408  32.2689408   9.4860000  31.9209408  33.0069408   9.2190000
  31.8819408  31.5139408   9.4670000  33.0199408  46.0899408  11.5960000
  32.9749408  46.1599408  12.5500000  33.1089408  46.9939408  11.2930000
  42.5739408  44.1909408  16.7410000  42.6879408  43.7449408  15.9010000
  43.3929408  44.6689408  16.8720000  45.7109408  42.0629408  28.0250000
  46.5479408  41.6029408  28.0980000  45.9129408  42.9669408  28.2670000
  39.4949408  45.9309408   3.8740000  39.7659408  45.7989408   4.7830000
  39.9059408  46.7569408   3.6190000  38.0199408  31.0509408  14.0630000
  38.1869408  31.8039408  13.4960000  38.5849408  31.1939408  14.8240000
  42.3299408  53.4389408   4.0320000  41.5709408  52.9229408   3.7610000
  43.0749408  53.0059408   3.6160000  33.8559408  58.2669408   6.1100000
  33.5329408  59.1219408   5.8250000  34.7399408  58.4389408   6.4320000
  32.1229408  52.1309408  17.8600000  32.8419408  51.8089408  17.3180000
  32.3069408  53.0629408  17.9750000  48.9909408  38.3469408   5.9690000
  49.9089408  38.3779408   6.2400000  48.8449408  37.4349408   5.7200000
  35.8029408  46.0779408   4.3120000  36.5949408  45.6419408   3.9980000
  35.6179408  45.6609408   5.1540000  45.6349408  41.6509408   3.7230000
  46.4549408  41.1739408   3.8460000  45.4639408  42.0589408   4.5730000
  43.6209408  45.0579408  11.2560000  42.8359408  45.3699408  11.7060000
  43.5009408  45.3309408  10.3470000  36.7349408  40.4089408  16.9120000
  37.6709408  40.2119408  16.8740000  36.3309408  39.5979408  17.2210000
  39.1019408  49.7299408  22.1000000  39.8669408  49.3959408  21.6300000
  39.3469408  50.6199408  22.3550000  38.8879408  50.4159408   1.5990000
  38.2829408  49.7779408   1.9770000  38.7719408  51.2019408   2.1330000
  43.4439408  30.5639408   5.1250000  44.2609408  30.5429408   5.6220000
  43.7179408  30.5099408   4.2090000  38.1309408  47.3219408   9.6840000
  38.1119408  48.2399408   9.4110000  37.9969408  47.3509408  10.6310000
  41.8609408  38.8709408   0.8180000  41.4729408  39.7019408   0.5460000
  42.8049408  39.0259408   0.7920000  44.0549408  50.7059408  19.8650000
  43.1819408  50.5199408  20.2090000  44.1139408  50.1809408  19.0660000
  38.7819408  44.8269408  10.5120000  37.8989408  44.6719408  10.8490000
  38.7299408  45.6859408  10.0920000  55.7759408  45.5769408  15.5950000
  56.5949408  45.4519408  15.1160000  55.8309408  44.9639408  16.3280000
  44.7319408  35.0299408   6.7360000  45.2879408  34.2539408   6.6670000
  45.2679408  35.6689408   7.2060000  44.7409408  48.3739408  28.8420000
  45.0239408  49.2489408  28.5730000  45.2609408  48.1829408  29.6220000
  44.8019408  45.4929408  16.8610000  44.9129408  46.3009408  16.3600000
  45.6729408  45.3059408  17.2110000  37.7279408  43.2519408  26.7680000
  37.4999408  42.7349408  27.5410000  38.4259408  43.8349408  27.0650000
  48.8059408  48.6449408  29.5420000  49.1739408  47.7629408  29.4910000
  49.4979408  49.2139408  29.2050000  57.4529408  42.4809408  12.6510000
  56.9679408  41.6609408  12.7380000  58.3159408  42.2169408  12.3320000
  49.8039408  40.9529408   8.8190000  50.7069408  41.2619408   8.7410000
  49.2889408  41.5889408   8.3220000  43.6759408  42.0399408   8.3110000
  42.9579408  42.4469408   8.7970000  43.3909408  41.1369408   8.1740000
  34.4319408  29.9699408   9.1520000  34.9539408  30.3289408   9.8690000
  33.7079408  30.5879408   9.0490000  33.1979408  45.2869408   7.9950000
  32.5999408  45.4139408   7.2590000  32.7259408  44.7069408   8.5910000
  43.4919408  40.2479408  15.4210000  44.1179408  40.9619408  15.5410000
  44.0109408  39.5349408  15.0460000  58.8019408  36.7519408  15.1170000
  58.5949408  36.3399408  14.2790000  57.9779408  37.1509408  15.3980000
  36.3509408  42.5299408  20.8020000  35.7639408  42.6359408  20.0530000
  36.8079408  43.3679408  20.8690000  32.1939408  32.4329408  15.0200000
  31.9859408  32.0149408  14.1840000  32.7589408  33.1699408  14.7850000
  50.3539408  31.1919408  14.3940000  51.2449408  31.0649408  14.0680000
  50.3279408  32.1089408  14.6690000  42.9529408  48.1909408   4.7110000
  42.8259408  48.4779408   5.6150000  43.8859408  48.3269408   4.5450000
  41.2079408  43.2309408   9.6310000  41.4929408  43.1859408  10.5430000
  40.4689408  43.8389408   9.6400000  35.2889408  46.5969408   1.2440000
  36.1979408  46.4009408   1.4730000  35.0949408  46.0109408   0.5130000
  35.9609408  31.2959408  10.8390000  36.7089408  31.8909408  10.8830000
  35.2019408  31.8499408  11.0230000  44.0369408  39.3019408  10.0320000
  43.0859408  39.2279408   9.9500000  44.3769408  38.5189408   9.5980000
  43.8409408  45.9929408  19.9150000  43.3829408  45.6059408  19.1690000
  44.1529408  46.8389408  19.5910000  47.9259408  43.8949408  14.1400000
  46.9729408  43.9149408  14.2200000  48.2449408  44.1439408  15.0080000
  47.9639408  34.7779408   0.3340000  47.0519408  35.0459408   0.4500000
  48.1979408  34.3589408   1.1630000  36.0819408  41.7559408   3.1260000
  35.2619408  42.2489408   3.0890000  36.7199408  42.3779408   3.4750000
  50.7849408  41.9599408  17.6010000  51.3309408  41.2469408  17.2700000
  50.9109408  42.6709408  16.9720000  46.0959408  40.7469408   9.5820000
  45.3069408  40.3579408   9.9590000  46.3329408  40.1619408   8.8630000
  41.8799408  41.9409408   3.1400000  41.5959408  41.9629408   4.0530000
  42.2839408  41.0799408   3.0340000  40.6029408  48.1769408  12.3180000
  39.6709408  48.0139408  12.4610000  40.6839408  49.1309408  12.3230000
  46.8019408  50.5669408  15.9690000  47.5409408  49.9729408  15.8380000
  46.7199408  51.0359408  15.1380000  36.3819408  33.8779408   6.2780000
  36.8239408  34.1609408   7.0780000  36.7769408  34.4079408   5.5850000
  47.8219408  40.6709408  24.7140000  47.0509408  40.2079408  24.3860000
  48.5589408  40.2549408  24.2680000  50.9929408  46.8169408   1.4860000
  51.3499408  47.6909408   1.3270000  50.4049408  46.9299408   2.2320000
  57.1529408  43.0869408  16.5300000  57.5009408  42.5009408  17.2020000
  56.4709408  42.5749408  16.0950000  58.4819408  40.9349408   9.6410000
  58.8959408  41.1749408  10.4700000  58.9019408  41.4979408   8.9910000
  44.8989408  56.5689408   8.8670000  44.8359408  56.8249408   9.7880000
  44.8469408  55.6129408   8.8800000  47.9739408  40.1959408   4.3400000
  48.5639408  40.9399408   4.4650000  48.2259408  39.5729408   5.0210000
  44.5639408  41.3319408  12.5050000  45.3129408  41.9219408  12.4160000
  44.8419408  40.5249408  12.0710000  35.8949408  49.3489408  10.4970000
  35.2319408  49.5939408  11.1420000  35.4229408  48.8129408   9.8600000
  40.5329408  34.8369408  11.0850000  40.4469408  35.5079408  10.4070000
  41.3799408  35.0149408  11.4930000  38.3729408  53.4639408  13.1860000
  39.1639408  53.9339408  12.9220000  37.6539408  53.9979408  12.8490000
  38.0019408  43.8009408   4.2870000  38.6839408  44.4149408   4.0160000
  37.9259408  43.9279408   5.2330000  38.5919408  50.0079408  11.6570000
  37.6919408  49.6829408  11.6220000  38.5009408  50.9549408  11.7650000
  38.5059408  59.5499408   4.7200000  39.2599408  59.8159408   4.1930000
  38.6619408  59.9459408   5.5770000  34.0379408  57.2559408   9.9530000
  34.9729408  57.0479408   9.9550000  33.9999408  58.1869408   9.7350000
  47.8569408  35.7969408   6.3200000  48.7739408  35.6119408   6.1180000
  47.3679408  35.4069408   5.5960000  54.8209408  37.4299408   8.6100000
  54.9309408  36.7309408   7.9650000  55.4989408  38.0679408   8.3900000
  39.6499408  41.8419408   7.8760000  40.4039408  42.2779408   8.2730000
  39.2779408  41.3139408   8.5820000  47.8409408  41.3329408  21.0730000
  47.5779408  40.4969408  21.4570000  47.0239408  41.8229408  20.9800000
  46.4069408  33.6289408  19.0480000  47.1099408  34.2789408  19.0450000
  46.1969408  33.5069408  19.9740000  41.6449408  38.1269408  23.6070000
  41.9199408  37.4939408  24.2710000  41.9309408  38.9729408  23.9510000
  48.3389408  38.6359408  17.0160000  48.1949408  39.4509408  17.4970000
  49.2549408  38.4159408  17.1850000  37.8239408  39.7049408   1.9020000
  38.6989408  39.3949408   2.1340000  37.3699408  39.7939408   2.7400000
  37.4669408  39.5539408  26.4890000  37.0789408  40.1509408  27.1290000
  37.8689408  40.1279408  25.8380000  43.4879408  38.3599408  17.7820000
  42.5719408  38.4729408  18.0380000  43.7179408  39.1799408  17.3450000
  57.1329408  43.4899408   6.5760000  56.2129408  43.7239408   6.4540000
  57.5309408  44.2739408   6.9540000  35.3919408  39.8369408  21.5440000
  34.4879408  40.0839408  21.7380000  35.8819408  40.6569408  21.5990000
  45.6989408  43.6459408  21.5090000  44.9289408  44.2119408  21.4530000
  45.7449408  43.3939408  22.4310000  35.3759408  35.8509408   4.5400000
  35.9379408  36.5929408   4.3170000  35.1269408  36.0039408   5.4520000
  51.4999408  50.8909408  21.6630000  51.5299408  51.8449408  21.5890000
  51.2169408  50.5929408  20.7990000  46.1989408  42.7839408  24.3270000
  46.9519408  42.3809408  24.7590000  45.5079408  42.1229408  24.3830000
  50.3079408  42.6819408  21.5200000  49.5659408  42.7069408  22.1230000
  50.0339408  43.2229408  20.7790000  53.5869408  41.2759408   3.3410000
  52.6949408  41.6219408   3.3230000  54.1119408  41.9439408   2.9000000
  37.8799408  56.0279408  23.7110000  38.5289408  56.2299408  23.0370000
  37.0729408  55.8609408  23.2240000  44.9759408  45.1649408  23.9550000
  45.6309408  45.7189408  23.5300000  45.4869408  44.4979408  24.4130000
  50.1269408  47.4139408  17.2570000  50.8569408  48.0169408  17.1180000
  50.2649408  47.0689408  18.1390000  47.7229408  39.0149408  14.5310000
  48.2079408  39.8399408  14.5330000  47.7629408  38.7109408  15.4380000
  47.0589408  34.2909408   3.6940000  47.3229408  33.4279408   4.0130000
  46.3329408  34.1129408   3.0950000  42.1429408  43.0499408  23.4810000
  42.7959408  43.1569408  22.7890000  41.8279408  43.9369408  23.6530000
  39.2999408  34.7489408  16.6790000  38.4779408  34.7659408  16.1890000
  39.0309408  34.7099408  17.5970000  40.2849408  39.8869408  12.5980000
  40.8409408  39.1149408  12.4900000  40.1829408  39.9779408  13.5460000
  41.5199408  40.6549408  24.6330000  41.7749408  41.4879408  24.2350000
  40.7539408  40.3749408  24.1320000  58.8309408  37.2719408   2.2880000
  58.8699408  36.9779408   3.1980000  59.5399408  36.7969408   1.8530000
  42.8319408  36.0959408  25.8560000  42.2219408  36.7999408  26.0740000
  42.2899408  35.4319408  25.4300000  52.0739408  39.3869408  29.4840000
  52.9599408  39.0269408  29.4310000  51.4999408  38.6319408  29.3590000
  47.8369408  35.8009408  18.3520000  48.7399408  35.6199408  18.0890000
  47.7859408  36.7559408  18.3950000  45.8959408  49.4069408  24.8660000
  45.5879408  48.8379408  25.5710000  46.8499408  49.3899408  24.9430000
  42.3099408  47.8379408  18.4750000  41.5999408  47.7869408  17.8350000
  42.9599408  48.4099408  18.0670000  51.5769408  40.0929408  13.5580000
  50.8019408  40.5149408  13.9290000  51.6999408  40.5189408  12.7100000
  33.0429408  42.8729408  25.6090000  33.5349408  42.7249408  24.8020000
  32.7319408  42.0039408  25.8640000  44.6799408  59.2389408  26.7010000
  45.3729408  59.7719408  26.3100000  44.3379408  59.7769408  27.4150000
  35.6739408  53.6199408   0.0820000  36.0949408  53.8689408   0.9050000
  36.3839408  53.2649408  -0.4520000  33.0279408  48.2679408   1.4330000
  33.1569408  49.2159408   1.4620000  33.8729408  47.9189408   1.1520000
  35.6639408  38.1749408  18.2520000  36.2629408  37.8789408  18.9380000
  35.1889408  37.3859408  17.9920000  35.9109408  36.2639408  23.1760000
  35.8639408  35.3079408  23.1610000  35.2579408  36.5469408  22.5370000
  33.5549408  42.7819408   3.2750000  32.7219408  42.4139408   3.5720000
  33.4619408  43.7249408   3.4110000  42.0799408  32.2879408  25.6550000
  41.8949408  32.3419408  26.5920000  41.6749408  33.0719408  25.2840000
  33.4729408  39.6029408  27.1470000  33.7089408  38.7169408  26.8730000
  34.0979408  39.8149408  27.8400000  50.1159408  33.8369408  15.0270000
  50.6079408  34.5009408  14.5440000  49.2639408  33.8059408  14.5920000
  39.1499408  59.6889408  22.5040000  39.9349408  60.2339408  22.5540000
  39.1679408  59.3219408  21.6200000  40.2899408  46.9219408  26.2360000
  40.6129408  46.3839408  25.5120000  40.5349408  47.8159408  25.9980000
  35.6959408  36.5609408  27.9650000  36.2729408  36.7839408  27.2350000
  36.2299408  36.7069408  28.7460000  39.0229408  40.0999408  23.4030000
  38.3649408  40.6929408  23.7660000  38.5369408  39.3039408  23.1870000
  32.6359408  39.1879408  12.6550000  32.1249408  39.8089408  13.1730000
  31.9839408  38.6069408  12.2650000  40.1199408  31.7629408   3.4120000
  39.5699408  31.8339408   2.6310000  40.9739408  32.0939408   3.1340000
  45.5569408  55.5499408  26.2860000  44.8219408  54.9969408  26.0220000
  46.0899408  55.6339408  25.4950000  37.1549408  37.1399408  25.5410000
  36.6739408  37.0259408  24.7220000  37.2739408  38.0859408  25.6200000
  44.3109408  40.8199408  25.0000000  43.4729408  40.6859408  24.5580000
  44.6099408  39.9379408  25.2200000  54.7679408  36.0699408  17.1460000
  53.8289408  36.0299408  16.9640000  55.1819408  35.7409408  16.3480000
  35.1569408  41.4689408  15.1180000  34.3929408  41.0489408  15.5120000
  35.9069408  41.0229408  15.5130000  46.3049408  47.8459408  18.6500000
  46.4699408  48.5339408  18.0040000  46.6669408  47.0539408  18.2540000
  41.4229408  31.4139408  22.3640000  41.7979408  31.2949408  23.2370000
  42.1729408  31.6199408  21.8060000  34.3739408  32.0349408  22.5920000
  35.0449408  32.5869408  22.9950000  33.7539408  32.6539408  22.2080000
  37.8019408  46.5439408   7.0640000  37.6149408  45.6139408   7.1890000
  37.8329408  46.9049408   7.9500000  39.5459408  44.8449408  27.9910000
  39.9689408  45.6099408  27.6000000  39.0599408  45.1949408  28.7380000
  31.7749408  30.6259408  28.9360000  32.5749408  31.0719408  29.2140000
  31.1079408  31.3129408  28.9280000  42.7309408  42.2139408  18.9580000
  42.2289408  41.4239408  18.7610000  42.6519408  42.7509408  18.1690000
  33.0389408  57.9559408  28.5700000  33.2659408  57.7619408  27.6600000
  32.9049408  58.9029408  28.5870000  38.8229408  49.2789408  28.8730000
  39.0599408  48.7649408  29.6450000  38.2279408  49.9509408  29.2050000
  40.8119408  34.5099408  24.7060000  39.9129408  34.5729408  25.0290000
  40.7219408  34.4639408  23.7540000  38.1589408  41.4079408  29.5170000
  39.1069408  41.5379408  29.5250000  37.9899408  40.8219408  30.2550000
  37.4109408  38.2469408  22.5390000  37.0039408  37.3889408  22.6570000
  36.8979408  38.6629408  21.8460000  35.9589408  32.4859408  29.6520000
  35.4029408  32.4139408  30.4270000  35.4749408  32.0279408  28.9650000
  58.9339408  29.9049408  27.3680000  59.3039408  30.6489408  27.8430000
  59.4589408  29.8439408  26.5700000  48.8269408  33.5309408  22.3500000
  48.8589408  32.6169408  22.6340000  49.3369408  33.5479408  21.5400000
  43.0339408  44.4019408   3.2410000  43.4299408  44.6769408   2.4150000
  42.6019408  43.5729408   3.0360000  44.6579408  31.6439408  24.3280000
  45.2989408  31.5509408  25.0330000  43.8909408  32.0299408  24.7510000
  39.2199408  40.8319408  20.8010000  38.2959408  40.9889408  20.6070000
  39.2279408  40.5439408  21.7140000  38.1889408  47.1529408  23.5900000
  39.0689408  47.0679408  23.9560000  37.9749408  48.0809408  23.6910000
  37.2109408  38.0059408   5.3860000  36.6419408  38.7579408   5.5510000
  37.9689408  38.1489408   5.9520000  60.1159408  38.1649408  11.4220000
  60.1929408  37.2509408  11.1470000  59.2939408  38.4639408  11.0340000
  51.0649408  39.6399408   2.0140000  51.5329408  39.0169408   2.5690000
  51.5449408  39.6309408   1.1850000  34.8949408  48.8529408   6.4910000
  35.2919408  49.6979408   6.7040000  35.4089408  48.5259408   5.7530000
  30.8779408  59.1329408   1.2170000  31.1779408  59.6449408   0.4660000
  31.0379408  58.2229408   0.9670000  36.9089408  34.5699408  15.4710000
  36.4269408  35.1219408  14.8560000  36.2819408  34.3849408  16.1700000
  45.2509408  38.2789408  25.3330000  44.5369408  37.6459408  25.4040000
  45.7219408  38.2039408  26.1630000  46.1519408  46.8349408   6.9130000
  45.4469408  46.5409408   6.3350000  45.7099408  47.0769408   7.7270000
  31.6169408  39.6609408  25.2060000  32.3259408  39.5369408  25.8370000
  32.0529408  39.9679408  24.4120000  45.4429408  30.1609408  13.2290000
  46.1079408  29.5109408  13.4580000  45.5879408  30.8799408  13.8430000
  54.0269408  49.3799408  21.4100000  54.2849408  48.4959408  21.6720000
  53.1719408  49.5119408  21.8210000  44.3959408  48.1949408  10.7400000
  44.3709408  48.1429408  11.6950000  44.2869408  47.2889408  10.4480000
  35.1149408  34.0059408  26.8730000  34.1869408  34.1409408  26.6820000
  35.3489408  34.7299408  27.4530000  34.5679408  42.7609408  23.3450000
  34.5269408  43.7069408  23.4870000  34.8839408  42.6679408  22.4460000
  51.5419408  32.2789408  24.3060000  51.1949408  32.1159408  23.4290000
  51.4429408  31.4439408  24.7630000  44.6329408  53.1429408  10.1660000
  44.8209408  53.6079408   9.3500000  44.7559408  52.2189408   9.9490000
  45.3159408  42.0549408  16.3340000  44.9349408  42.8129408  16.7780000
  46.1729408  41.9419408  16.7450000  52.2929408  47.8109408  23.8080000
  52.1829408  47.0259408  24.3450000  52.7159408  48.4419408  24.3890000
  39.7159408  47.2639408   0.6440000  40.4809408  46.8889408   0.2080000
  40.0779408  47.7609408   1.3780000  39.6429408  57.8269408  24.9720000
  39.4569408  57.5769408  24.0670000  40.3899408  58.4219408  24.9080000
  37.2109408  41.8149408  24.3940000  36.3699408  42.1359408  24.0660000
  37.5599408  42.5409408  24.9100000  30.1669408  38.8079408  20.3710000
  29.8829408  38.0049408  20.8070000  29.9809408  39.5029408  21.0020000
  41.3649408  39.9299408  18.7550000  40.7509408  39.2719408  18.4300000
  41.2129408  39.9549408  19.7000000  44.3869408  50.9349408   1.0510000
  43.5169408  51.2199408   0.7720000  44.8489408  50.7409408   0.2360000
  40.7769408  39.9669408  15.3550000  41.7099408  40.1599408  15.2610000
  40.7469408  39.1889408  15.9110000  33.5569408  37.1909408  26.0440000
  34.3569408  36.6719408  26.1280000  33.4109408  37.2549408  25.1000000
  49.8279408  45.7489408  13.0870000  50.5869408  45.7009408  13.6680000
  49.2939408  44.9909408  13.3260000  30.9909408  44.1799408  29.6390000
  31.5389408  44.9439408  29.4570000  30.9489408  44.1369408  30.5940000
  41.3459408  43.1939408  28.8840000  40.7059408  43.7409408  28.4290000
  41.9039408  42.8469408  28.1880000  58.4329408  31.3169408  17.7720000
  58.3759408  30.3929408  18.0160000  58.3789408  31.7879408  18.6040000
  46.9629408  46.6139408  22.6300000  46.8069408  47.5369408  22.8310000
  47.8629408  46.5879408  22.3060000  56.9299408  41.9079408   1.8610000
  56.9209408  42.4829408   2.6270000  57.6339408  41.2839408   2.0360000
  45.8339408  33.3109408   1.4930000  46.3929408  32.5349408   1.4550000
  45.4889408  33.4019408   0.6050000  30.8749408  33.4179408  23.9600000
  30.5559408  32.5409408  23.7490000  31.6379408  33.5389408  23.3940000
  43.8929408  49.7199408  17.2500000  43.8199408  50.5249408  16.7370000
  44.7049408  49.3139408  16.9450000  40.5189408  37.1779408  15.9270000
  40.5439408  36.3239408  16.3590000  40.1409408  36.9999408  15.0660000
  45.9109408  57.6449408  20.9300000  45.4609408  56.9469408  20.4540000
  45.2979408  57.8989408  21.6190000  45.5579408  34.1889408  26.1150000
  44.8629408  34.8469408  26.1260000  45.7909408  34.1009408  25.1910000
  47.6369408  60.0739408  22.6510000  47.4279408  59.3739408  22.0330000
  47.3079408  59.7569408  23.4920000  39.3779408  38.0839408  28.2570000
  38.8019408  38.1769408  27.4980000  40.1869408  38.5259408  28.0000000
  37.9469408  37.0969408  19.7360000  37.9239408  36.1409408  19.7090000
  38.7869408  37.3059408  20.1460000  46.8989408  59.9439408   5.6780000
  46.7499408  59.2089408   6.2740000  46.6159408  59.6199408   4.8230000
  39.8299408  57.2289408   5.4010000  38.9329408  57.4469408   5.1470000
  40.3679408  57.5429408   4.6740000  48.4289408  59.3959408  28.3290000
  47.9429408  58.5779408  28.2260000  48.7299408  59.3839408  29.2380000
  31.1219408  36.0539408   9.6410000  30.6489408  36.3209408   8.8530000
  31.9209408  36.5809408   9.6320000  41.1519408  52.9069408  20.7830000
  41.1849408  51.9589408  20.9060000  40.5209408  53.0349408  20.0740000
  41.0869408  55.7069408   7.3250000  40.8939408  56.1889408   8.1280000
  40.7599408  56.2699408   6.6230000  32.6749408  48.7829408  10.9760000
  33.1839408  49.3299408  11.5740000  33.0549408  48.9529408  10.1140000
  43.9669408  45.5319408   5.7910000  44.1179408  44.5939408   5.6770000
  43.3829408  45.7699408   5.0710000  32.1679408  34.6769408  12.0900000
  31.6919408  35.0179408  11.3330000  31.8439408  35.1909408  12.8290000
  39.7219408  58.0699408   8.6160000  39.4219408  58.0619408   7.7080000
  39.1469408  58.6979408   9.0530000  41.7279408  50.3879408  21.2710000
  41.6209408  49.5149408  20.8940000  42.3419408  50.2629408  21.9960000
  58.0529408  55.8899408  12.2050000  58.2489408  56.7309408  12.6180000
  57.0989408  55.8779408  12.1250000  43.8599408  36.7389408   2.4700000
  43.0679408  37.2019408   2.1940000  43.5509408  36.0939408   3.1060000
  34.9999408  59.5199408  18.2440000  35.1339408  59.6689408  19.1800000
  34.6149408  60.3359408  17.9240000  40.5059408  49.8669408   6.1100000
  39.8559408  49.5139408   5.5030000  39.9949408  50.3779408   6.7380000
  43.0909408  35.1259408   4.6640000  43.6829408  35.1169408   5.4160000
  42.3979408  34.5079408   4.8970000  33.3269408  54.6049408  19.3680000
  34.2059408  54.2289408  19.3230000  33.4169408  55.4729408  18.9750000
  30.0379408  51.4779408   4.6990000  30.9309408  51.1549408   4.5830000
  29.4899408  50.8369408   4.2450000  45.7609408  55.8819408   4.7460000
  45.6409408  55.0999408   4.2060000  44.9199408  55.9989408   5.1890000
  44.2179408  50.3289408  13.1910000  44.4609408  51.2159408  12.9250000
  45.0449408  49.9189408  13.4450000  47.6079408  51.4719408  21.4500000
  47.1129408  52.1989408  21.8280000  47.2049408  50.6879408  21.8230000
  42.8429408  54.9729408  21.9030000  42.4879408  54.2539408  21.3800000
  43.3269408  55.5089408  21.2750000  34.6779408  52.4899408  16.5850000
  35.2769408  53.2359408  16.6160000  35.2109408  51.7439408  16.8610000
  35.7979408  51.3969408   6.7650000  36.4539408  51.7799408   7.3470000
  34.9819408  51.4349408   7.2640000  60.0089408  51.9419408  29.8560000
  59.3139408  52.0199408  30.5100000  59.9439408  51.0409408  29.5420000
  47.4849408  57.6719408   7.7400000  46.6389408  57.2889408   7.9700000
  47.8719408  57.0489408   7.1250000  32.3099408  48.7869408   5.5240000
  31.6629408  48.6259408   6.2120000  33.1549408  48.6519408   5.9530000
  44.3059408  58.7819408   7.3720000  44.7559408  58.1469408   7.9280000
  43.9669408  58.2639408   6.6420000  54.3189408  54.7159408  14.1060000
  54.8969408  53.9829408  13.8980000  54.5489408  55.3919408  13.4680000
  36.4959408  48.9039408   2.3800000  35.9039408  49.5189408   1.9470000
  35.9969408  48.0889408   2.4350000  35.8519408  57.3879408  29.9390000
  35.2559408  57.5509408  29.2070000  35.3619408  56.8089408  30.5230000
  46.4369408  49.0669408  21.2430000  46.5039408  48.3559408  20.6060000
  45.6939408  49.5899408  20.9420000  37.2649408  53.0889408   3.3920000
  37.5729408  53.8519408   2.9040000  37.6459408  53.1919408   4.2640000
  40.3759408  53.4779408  17.1180000  39.6279408  53.2069408  17.6500000
  40.5139408  52.7509408  16.5100000  45.4449408  55.1009408  14.0140000
  46.2459408  55.2109408  13.5020000  45.0809408  54.2679408  13.7140000
  39.1669408  35.4379408   5.7480000  38.8509408  35.6709408   4.8750000
  39.4189408  34.5179408   5.6750000  34.2729408  50.1469408  12.5690000
  33.8439408  50.9559408  12.8460000  35.0339408  50.0699408  13.1450000
  33.2469408  45.4839408   3.2100000  33.6359408  46.1419408   2.6340000
  33.7999408  45.4919408   3.9910000  34.1789408  47.7809408   8.9290000
  34.2309408  48.1619408   8.0530000  33.5919408  47.0319408   8.8310000
  41.1639408  59.3629408  14.0990000  41.9599408  59.0219408  14.5070000
  40.8289408  60.0059408  14.7250000  41.2709408  59.4239408   0.7540000
  41.1439408  59.1009408  -0.1380000  40.7259408  60.2099408   0.8040000
  40.1639408  44.3359408  17.9330000  39.7059408  43.4989408  17.8530000
  40.9369408  44.2409408  17.3770000  36.7049408  54.8669408   7.0240000
  37.3139408  54.3839408   6.4660000  36.0519408  55.2189408   6.4190000
  30.7809408  47.7779408   3.0700000  31.3749408  47.8329408   3.8190000
  31.3059408  48.0689408   2.3250000  36.9129408  56.0559408  13.0170000
  36.7609408  56.9919408  13.1450000  37.8609408  55.9539408  13.1010000
  39.9689408  55.5049408  11.5150000  40.0609408  56.2039408  12.1630000
  39.5309408  55.9229408  10.7730000  42.8559408  32.0519408   9.6080000
  43.6339408  31.5559408   9.8640000  42.6389408  32.5739408  10.3800000
  40.9059408  52.2719408   1.9450000  40.8709408  51.3879408   1.5790000
  40.4339408  52.8129408   1.3120000  30.6149408  44.7429408   2.4330000
  29.9859408  45.4539408   2.5520000  31.4659408  45.1429408   2.6100000
  45.8529408  53.8829408   7.9390000  45.9139408  53.7729408   6.9900000
  46.7569408  54.0099408   8.2250000  37.6779408  45.6369408  18.2270000
  37.3809408  45.6059408  19.1360000  38.4549408  45.0779408  18.2080000
  34.3649408  52.5619408  10.9050000  33.8259408  53.0119408  11.5560000
  35.0559408  53.1889408  10.6910000  41.6299408  53.2589408  11.2250000
  41.9139408  53.2529408  10.3110000  40.9499408  53.9319408  11.2610000
  33.3079408  52.3489408  14.1740000  33.6449408  53.1049408  13.6930000
  33.8179408  52.3319408  14.9840000  50.0859408  33.0319408   1.4180000
  50.4329408  32.3479408   0.8450000  49.2249408  32.7079408   1.6830000
  58.1769408  32.4219408  20.1510000  57.3749408  32.2089408  20.6290000
  58.4289408  33.2859408  20.4760000  49.2209408  58.9019408   9.3070000
  48.6819408  59.2899408   9.9960000  48.5979408  58.6619408   8.6210000
  30.9919408  29.9949408  25.7370000  31.7769408  30.0659408  25.1940000
  31.2419408  30.3889408  26.5730000  30.7819408  46.6869408  15.9170000
  30.1779408  46.2529408  16.5200000  30.3069408  47.4619408  15.6180000
  36.7389408  54.1779408   9.9850000  36.8389408  55.0859408  10.2700000
  36.8689408  54.2079408   9.0370000  40.4329408  31.4439408  15.7220000
  40.5989408  31.4719408  16.6650000  40.7079408  32.3039408  15.4050000
  41.3089408  49.2199408  25.3400000  42.0399408  49.3309408  24.7320000
  41.4799408  49.8519408  26.0380000  33.3309408  49.3729408  18.2010000
  32.4419408  49.5659408  18.5000000  33.8949408  49.6769408  18.9110000
  56.3379408  38.5209408  14.7070000  55.9319408  39.3879408  14.7270000
  55.5999408  37.9109408  14.7000000  33.1059408  51.9459408   8.1800000
  33.4189408  52.7029408   8.6760000  32.1519408  52.0229408   8.2010000
  45.4369408  53.2539408  20.0090000  46.0059408  53.1119408  19.2530000
  45.0009408  52.4129408  20.1430000  37.0619408  51.4499408   9.2770000
  37.2629408  52.2119408   9.8210000  36.5489408  50.8769408   9.8470000
  42.4839408  56.0199408  29.2340000  42.1589408  55.9759408  30.1330000
  41.7009408  56.1619408  28.7020000  42.0659408  58.8869408   9.7040000
  41.2279408  58.5389408   9.3980000  42.5209408  59.1529408   8.9050000
  41.2699408  56.0949408  16.5260000  41.8939408  56.0249408  15.8040000
  41.2699408  55.2259408  16.9290000  40.8659408  48.4719408   2.7640000
  40.6719408  49.4039408   2.8690000  41.5619408  48.2989408   3.3990000
  43.6439408  30.4429408   1.8470000  42.8629408  30.2199408   1.3410000
  43.6489408  31.3999408   1.8730000  33.1739408  30.5829408   4.5740000
  34.1289408  30.6499408   4.5680000  32.8779408  31.4079408   4.9580000
  39.4209408  51.4549408   7.9740000  38.8169408  51.4819408   8.7160000
  40.2109408  51.8929408   8.2920000  58.8549408  53.9129408  10.4620000
  58.1329408  53.2899408  10.3720000  58.5459408  54.5469408  11.1090000
  39.8059408  45.8759408  21.7940000  38.8959408  46.1509408  21.9020000
  39.7489408  44.9669408  21.5000000  37.9939408  51.3219408  14.6600000
  38.8919408  51.3319408  14.9910000  37.9779408  52.0019408  13.9870000
  55.4639408  55.1709408   8.5830000  54.5769408  55.4189408   8.3240000
  55.9009408  54.9499408   7.7600000  54.4759408  50.8279408  19.0240000
  55.3199408  51.0919408  18.6570000  54.7019408  50.2359408  19.7420000
  38.2409408  49.7249408  25.2630000  38.0479408  49.1849408  26.0300000
  39.1959408  49.7239408  25.2030000  42.9509408  31.3049408  12.5350000
  43.5739408  30.6049408  12.7320000  42.1069408  30.9639408  12.8300000
  59.8429408  56.8959408   8.9490000  59.2369408  56.1979408   8.6960000
  60.4319408  56.4839408   9.5810000  43.2739408  56.0209408   5.5640000
  43.0779408  55.8549408   6.4860000  42.5129408  55.6839408   5.0920000
  43.9679408  53.1959408  12.7510000  43.0609408  53.1179408  12.4530000
  44.4749408  53.3119408  11.9480000  37.9659408  53.2009408  24.6000000
  38.6309408  52.7009408  24.1270000  37.9549408  54.0549408  24.1660000
  58.8189408  58.9629408  19.5480000  59.3499408  58.7979408  20.3270000
  57.9169408  58.8389408  19.8420000  37.1999408  32.1849408  19.7970000
  37.7519408  31.4189408  19.6400000  36.4489408  31.8439408  20.2840000
  46.6659408  42.2829408   1.1970000  46.1439408  43.0379408   0.9240000
  46.2319408  41.9649408   1.9890000  41.4439408  45.8639408  23.9440000
  42.0879408  46.3889408  23.4680000  40.7859408  45.6379408  23.2870000
  44.5009408  42.8519408   5.8720000  44.3729408  42.6739408   6.8040000
  43.6179408  42.8409408   5.5020000  40.8959408  49.7499408   9.9370000
  40.1039408  49.8069408  10.4710000  41.6099408  49.9329408  10.5480000
  49.0259408  44.6979408   5.6060000  49.1789408  45.5409408   6.0320000
  48.8219408  44.0999408   6.3250000  36.7689408  58.4729408  14.2330000
  37.3599408  59.2059408  14.4070000  35.9639408  58.6979408  14.6990000
  39.7699408  52.6009408  26.6800000  39.2829408  52.6389408  25.8560000
  39.7329408  53.4939408  27.0220000  57.3529408  30.3099408  12.8330000
  57.5099408  29.6729408  13.5300000  57.9369408  31.0399408  13.0390000
  42.1129408  48.3489408   7.7370000  41.7449408  48.5769408   8.5910000
  41.5649408  48.8179408   7.1070000  54.6629408  49.5749408  12.4850000
  54.9049408  48.8659408  13.0800000  54.1909408  49.1409408  11.7740000
  31.4539408  59.7109408  15.8930000  31.4329408  60.6619408  16.0040000
  32.2849408  59.5399408  15.4500000  36.8329408  50.5419408  17.8900000
  37.4509408  49.8449408  17.6710000  36.2749408  50.1639408  18.5700000
  55.2199408  44.8659408   1.3530000  55.3179408  44.0859408   0.8060000
  54.4369408  45.3009408   1.0120000  48.8679408  57.6099408   3.3490000
  49.7269408  57.3279408   3.6620000  48.2529408  57.2769408   4.0020000
  38.3579408  34.1779408   1.8600000  38.4489408  34.8209408   2.5630000
  37.5369408  33.7239408   2.0540000  41.2019408  58.7629408   3.4690000
  41.2119408  59.5939408   3.9450000  41.6049408  58.9659408   2.6240000
  36.1329408  53.5059408  20.1000000  36.3269408  53.2889408  19.1880000
  36.9599408  53.8419408  20.4480000  40.2109408  58.4339408  11.9620000
  41.0079408  58.2959408  11.4500000  40.5229408  58.6039408  12.8510000
  47.3879408  52.3639408  27.4260000  47.6389408  52.8729408  28.1970000
  48.1209408  52.4709408  26.8190000  31.6809408  58.4499408   7.5820000
  32.3499408  57.9409408   7.1260000  30.8959408  57.9039408   7.5440000
  55.9239408  52.7609408  13.2040000  55.7279408  52.7439408  12.2670000
  56.0819408  51.8459408  13.4340000  49.3099408  56.6769408  14.0320000
  49.6109408  56.8749408  14.9190000  49.3619408  55.7229408  13.9680000
  33.3539408  54.7089408   9.0660000  33.7559408  55.5449408   9.3010000
  32.5179408  54.9489408   8.6650000  31.4129408  56.7549408   0.3960000
  32.1889408  57.0679408  -0.0690000  31.2349408  55.8959408   0.0140000
  59.6089408  57.8679408  15.3230000  60.1049408  57.1339408  14.9590000
  60.2649408  58.5469408  15.4810000  52.3659408  44.6299408   8.6880000
  51.7399408  44.6659408   9.4110000  53.1379408  45.0919408   9.0160000
  31.5119408  49.0599408  13.6060000  30.8219408  49.4449408  13.0660000
  32.0049408  48.5029408  13.0030000  33.9449408  56.8669408  18.1460000
  33.7629408  56.8199408  17.2080000  34.4529408  57.6719408  18.2510000
  43.2799408  52.0519408  15.6120000  42.3279408  51.9589408  15.6370000
  43.5199408  51.8259408  14.7140000  42.9559408  51.3659408   6.3640000
  43.4859408  51.8059408   5.6990000  42.4029408  50.7609408   5.8690000
  33.4409408  36.1809408   1.9050000  34.0029408  36.8479408   1.5100000
  33.9759408  35.7989408   2.6010000  47.0119408  53.5979408   0.0990000
  47.4669408  54.3679408   0.4400000  46.1409408  53.9179408  -0.1370000
  37.1949408  52.4749408  28.1130000  36.6079408  52.3649408  27.3650000
  38.0739408  52.3999408  27.7400000  48.2589408  42.5979408   7.4360000
  47.7069408  41.9699408   6.9700000  47.6589408  43.0499408   8.0290000
  30.1369408  33.5589408   5.8370000  29.9919408  32.6449408   5.5950000
  30.0729408  33.5669408   6.7920000  45.3399408  50.8529408  28.1340000
  44.7079408  51.5289408  27.8920000  46.1799408  51.1839408  27.8140000
  49.9039408  30.2909408  26.3150000  49.3069408  30.0529408  27.0240000
  50.2959408  31.1169408  26.5980000  56.3759408  53.1479408  22.1470000
  55.9069408  53.8409408  21.6830000  57.2419408  53.1299408  21.7400000
  38.6959408  34.9359408  26.2190000  38.5659408  34.8349408  27.1620000
  37.9669408  35.4869408  25.9330000  35.0549408  30.9999408  27.6170000
  35.2369408  31.8089408  27.1400000  34.9239408  30.3429408  26.9330000
  42.6159408  52.0489408  24.5270000  42.7129408  51.7699408  25.4380000
  43.1399408  51.4229408  24.0270000  34.7479408  56.4299408   2.0810000
  34.8309408  55.7089408   2.7050000  33.9279408  56.8609408   2.3190000
  39.2759408  56.4629408  14.7030000  39.7309408  56.2569408  15.5190000
  39.1089408  57.4049408  14.7520000  53.3719408  59.3539408  16.9710000
  53.3079408  58.3989408  16.9860000  52.9949408  59.6059408  16.1290000
  46.2559408  53.4489408  22.4580000  45.9049408  53.5529408  21.5740000
  45.4959408  53.5559408  23.0320000  36.9949408  45.9949408  20.7340000
  36.4209408  45.7369408  21.4560000  36.9939408  46.9519408  20.7580000
  46.4109408  57.9309408  16.0400000  46.7929408  58.4529408  16.7440000
  46.9819408  58.0879408  15.2870000  44.1419408  54.1589408  24.0840000
  43.6309408  53.3779408  24.2940000  43.5819408  54.6599408  23.4910000
  43.5379408  46.9969408  22.3460000  44.1009408  46.3869408  22.8230000
  43.4289408  46.5979408  21.4830000  43.4829408  49.4799408  23.5240000
  43.6019408  48.6709408  23.0260000  44.1959408  49.4769408  24.1620000
  35.5179408  50.8639408   0.6340000  34.6129408  50.9029408   0.3240000
  35.8689408  51.7369408   0.4600000  33.9199408  53.7329408  27.9040000
  33.7749408  52.7969408  27.7640000  34.6069408  53.7729408  28.5690000
  53.3409408  55.3679408  26.2690000  53.8739408  55.7849408  25.5910000
  52.6439408  55.9989408  26.4470000  51.0999408  57.1969408  26.2780000
  50.7519408  57.3389408  25.3980000  51.3499408  58.0699408  26.5810000
  44.6979408  55.7839408  19.6430000  44.8279408  55.7939408  18.6940000
  44.6369408  54.8559408  19.8670000  41.6579408  59.4879408  25.1230000
  41.5199408  60.2759408  25.6490000  42.5939408  59.3049408  25.2060000
  35.6269408  55.5319408  22.0670000  36.1349408  55.9269408  21.3580000
  35.2669408  54.7309408  21.6870000  38.4599408  32.5539408  24.9290000
  38.0919408  31.8119408  25.4080000  38.4689408  33.2689408  25.5650000
  33.5699408  50.9729408  27.9310000  32.6959408  50.8599408  27.5580000
  34.1639408  50.6609408  27.2500000  54.5209408  47.0009408  22.3890000
  55.1209408  46.3069408  22.6620000  53.6929408  46.7869408  22.8180000
  41.6979408  50.0789408  29.7730000  40.8099408  49.8989408  29.4640000
  42.0089408  49.2409408  30.1130000  40.6369408  51.0749408  15.7480000
  41.0509408  50.3259408  16.1760000  40.8889408  50.9959408  14.8280000
  37.8009408  47.6069408  26.9660000  37.9509408  48.0929408  27.7770000
  38.6709408  47.3129408  26.6970000  44.6939408  57.6009408  29.4540000
  43.7959408  57.3609408  29.6810000  44.6029408  58.1929408  28.7070000
  44.6019408  58.8039408  23.5100000  45.1489408  58.3629408  24.1610000
  44.6489408  59.7299408  23.7450000  38.0119408  55.6129408  29.1090000
  37.3469408  55.9979408  29.6800000  37.5689408  55.4959408  28.2690000
  47.2359408  55.8399408  24.2300000  47.9919408  55.7569408  23.6490000
  46.6439408  55.1399408  23.9550000  46.3829408  55.0279408  16.5230000
  45.9809408  54.9789408  15.6560000  46.6939408  55.9299408  16.5930000
  29.8979408  55.6919408  22.9550000  29.7849408  54.8959408  23.4740000
  30.8379408  55.7319408  22.7780000  38.7329408  55.2859408   2.7840000
  39.4529408  55.3559408   2.1580000  38.2929408  56.1349408   2.7390000
  56.7709408  33.6649408  22.7270000  56.7729408  32.8369408  23.2070000
  57.3549408  34.2339408  23.2270000  35.4859408  47.0279408  25.4590000
  35.3769408  46.1209408  25.7470000  36.3439408  47.2849408  25.7970000
  39.9189408  33.5539408  21.8240000  39.1149408  33.4609408  22.3350000
  40.5089408  32.8899408  22.1800000  41.3379408  58.9519408  27.8980000
  40.3879408  58.9459408  27.7800000  41.6909408  58.7969408  27.0220000
  38.4839408  42.6569408  12.7750000  38.7579408  43.2109408  12.0450000
  39.2489408  42.1129408  12.9640000  34.8689408  52.0059408   4.4930000
  35.4839408  52.3369408   3.8380000  35.3879408  51.9349408   5.2950000
  31.1839408  53.8679408   2.2820000  31.7039408  53.3719408   1.6500000
  31.6219408  53.7219408   3.1200000  31.2759408  50.9209408  22.3260000
  31.5259408  50.2529408  21.6880000  31.9619408  51.5849408  22.2600000
  37.4129408  56.2019408  20.0570000  37.4249408  56.6489408  19.2110000
  38.2419408  56.4469408  20.4690000  40.8449408  32.1909408  28.1290000
  39.9649408  31.9919408  27.8090000  40.7209408  32.4099408  29.0520000
  42.1609408  51.0939408  27.1720000  41.3539408  51.5889408  27.0280000
  42.4389408  51.3399408  28.0540000  51.6459408  55.8579408  19.2480000
  51.8839408  55.4889408  18.3980000  51.1379408  55.1669408  19.6750000
  31.9099408  56.0429408  26.4380000  31.0299408  56.3809408  26.2760000
  31.8099408  55.4669408  27.1960000  56.5009408  53.4099408   3.8900000
  57.2679408  53.2959408   3.3290000  56.1529408  54.2679408   3.6490000
  42.1069408  58.3369408  22.1520000  42.8629408  58.3479408  22.7390000
  41.9139408  59.2609408  21.9920000  36.9049408  59.6589408  24.4020000
  37.4049408  59.1249408  25.0190000  37.5369408  59.8999408  23.7250000
  45.8789408  32.1039408  21.6990000  45.5149408  31.9559408  22.5720000
  46.7829408  31.7959408  21.7610000  38.8949408  51.6709408  19.8570000
  38.2309408  51.5909408  19.1720000  38.9859408  50.7849408  20.2080000
  49.3409408  49.3989408  20.3370000  49.0289408  49.1119408  19.4790000
  48.5439408  49.5879408  20.8320000  44.5349408  33.3569408  28.7370000
  44.1719408  32.4879408  28.5610000  45.0539408  33.5609408  27.9590000
  47.1019408  45.7249408  25.9070000  47.7749408  46.4049408  25.8650000
  46.2939408  46.1989408  26.1020000  43.0649408  31.5539408  20.0000000
  43.9649408  31.6039408  20.3230000  42.9399408  30.6309408  19.7800000
  38.2529408  31.2669408  28.1430000  37.5959408  31.4079408  28.8250000
  38.1889408  30.3329408  27.9390000  40.1359408  52.0139408  23.1660000
  40.2959408  52.4989408  22.3560000  40.9959408  51.9489408  23.5810000
  48.4869408  38.0279408   1.6070000  49.1999408  38.3819408   2.1380000
  48.0509408  38.7999408   1.2450000  45.1319408  47.2609408  26.3960000
  45.2409408  47.6919408  27.2440000  44.5449408  46.5269408  26.5740000
  37.2789408  56.4109408  26.2950000  36.3539408  56.2849408  26.0820000
  37.7199408  56.4259408  25.4460000  44.4529408  50.9099408   3.7780000
  44.3679408  50.7669408   2.8350000  45.0229408  50.2019408   4.0770000
  37.1399408  57.5469408  17.6840000  36.8289408  57.2759408  16.8200000
  36.5409408  58.2459408  17.9460000  55.0939408  33.0129408  25.4040000
  54.7599408  32.6939408  24.5660000  55.6369408  32.2969408  25.7340000
  45.7979408  58.7229408   3.2530000  45.6619408  57.7969408   3.0530000
  45.1299408  59.1799408   2.7420000  39.0859408  31.1759408   1.1750000
  38.4019408  30.5059408   1.1510000  38.6729408  31.9539408   0.8020000
  38.0329408  59.1679408  10.5370000  38.6119408  58.8459408  11.2270000
  37.5109408  59.8489408  10.9610000  42.8329408  46.8609408  13.8650000
  42.4649408  45.9809408  13.9370000  42.1939408  47.3459408  13.3420000
  38.4229408  58.5869408  27.7970000  38.0969408  58.0029408  27.1120000
  38.0209408  58.2599408  28.6020000  43.1219408  45.2349408  26.3590000
  42.9999408  44.2859408  26.3360000  43.2029408  45.4879408  25.4390000
  35.5019408  30.1759408  20.8970000  35.1519408  30.8029408  21.5300000
  35.3639408  29.3209408  21.3060000  44.6709408  37.7959408   5.3550000
  45.3629408  37.6749408   4.7050000  44.3999408  36.9069408   5.5840000
  42.2429408  36.3459408   7.8770000  43.0639408  35.9189408   7.6340000
  41.5769408  35.9019408   7.3520000  40.7739408  36.2109408  29.9660000
  41.1209408  36.8889408  30.5450000  40.1539408  36.6719408  29.4000000
  54.9609408  45.1169408   6.4150000  54.0719408  45.3439408   6.1410000
  55.4919408  45.8699408   6.1570000  49.3769408  37.5459408  12.7920000
  49.5639408  37.9789408  11.9590000  48.9799408  38.2279408  13.3340000
  59.9389408  42.9329408  20.1570000  59.2409408  43.5489408  19.9330000
  59.5489408  42.0699408  20.0180000  53.4369408  38.0999408  14.6000000
  53.0629408  38.4679408  13.7990000  53.0709408  37.2169408  14.6520000
  57.4789408  33.9939408  10.6530000  57.3369408  34.2939408   9.7560000
  57.7139408  33.0699408  10.5640000  53.8419408  37.9109408  11.1330000
  53.2649408  38.4849408  10.6300000  54.5029408  37.6239408  10.5030000
  54.1399408  31.3499408  10.9420000  53.2239408  31.4689408  11.1920000
  54.1099408  30.7419408  10.2040000  52.8249408  51.8459408  29.9020000
  53.1099408  51.1609408  30.5080000  53.3979408  51.7459408  29.1420000
  30.0609408  36.7279408  17.5830000  30.7789408  37.3319408  17.7720000
  29.7179408  37.0209408  16.7390000  49.3879408  42.0239408   1.7080000
  48.4449408  42.1189408   1.5730000  49.5609408  41.0969408   1.5410000
  48.6229408  34.8899408  12.5080000  49.1929408  34.4829408  11.8550000
  48.9969408  35.7609408  12.6440000  58.2209408  53.3229408  14.8680000
  57.5639408  53.4529408  14.1850000  59.0359408  53.1649408  14.3900000
  57.7609408  32.7849408   3.9490000  58.2159408  32.0179408   3.6010000
  57.0409408  32.9349408   3.3370000  45.8699408  37.0169408   0.6600000
  45.2029408  36.8519408   1.3270000  46.4569408  37.6569408   1.0610000
  49.5339408  47.2399408  26.6460000  50.2919408  46.8729408  26.1910000
  49.5379408  46.8119408  27.5020000  55.9399408  35.4359408  14.7680000
  56.1589408  35.8389408  13.9280000  55.7629408  34.5199408  14.5560000
  55.4509408  36.9699408   5.4990000  54.8859408  36.2069408   5.3780000
  55.7639408  37.1789408   4.6180000  30.4629408  52.8909408  13.2580000
  30.2129408  51.9829408  13.0880000  31.3599408  52.8359408  13.5870000
  44.7979408  41.2589408  20.4950000  44.1209408  41.7319408  20.0110000
  45.3779408  41.9449408  20.8280000  48.4659408  53.8039408   9.1880000
  48.8379408  54.6159408   8.8460000  48.9149408  53.1109408   8.7040000
  46.7079408  37.0059408   3.8860000  47.1969408  37.5149408   3.2390000
  46.7849408  36.0999408   3.5860000  35.6159408  33.9159408  17.9620000
  36.1299408  33.4149408  18.5940000  35.1099408  33.2559408  17.4870000
  55.2969408  35.6169408  19.7390000  56.1719408  35.2819408  19.5430000
  54.9219408  35.8239408  18.8830000  40.5079408  37.1349408  20.9140000
  41.3479408  36.7929408  20.6060000  40.6289408  37.2549408  21.8560000
  35.4309408  38.9249408  13.3460000  34.5449408  38.8439408  13.6980000
  35.4069408  39.7229408  12.8170000  59.5329408  30.6999408   3.3760000
  60.1959408  30.7629408   2.6890000  59.1429408  29.8339408   3.2540000
  49.1209408  41.3209408  13.8360000  48.7309408  41.3989408  12.9650000
  48.7629408  42.0599408  14.3270000  53.4509408  46.6139408  17.9200000
  53.0099408  47.2459408  17.3520000  52.8429408  46.4799408  18.6470000
  31.2429408  55.3819408  11.0890000  31.8839408  54.7989408  10.6820000
  30.4409408  54.8619408  11.1370000  30.5589408  33.4369408   2.1060000
  30.9039408  33.9419408   1.3700000  29.6199408  33.3699408   1.9320000
  55.4529408  53.0009408   6.3470000  56.1639408  52.5919408   6.8410000
  55.8259408  53.1649408   5.4810000  49.8289408  42.1619408   4.8400000
  50.2879408  42.3219408   5.6640000  49.5549408  43.0299408   4.5450000
  48.0169408  37.0069408  27.2190000  47.3259408  36.5609408  27.7080000
  48.0999408  36.5049408  26.4080000  55.5609408  41.1319408  15.4750000
  55.1189408  40.5969408  16.1340000  54.8589408  41.6419408  15.0700000
  31.6959408  44.5629408   5.6540000  31.0739408  44.5129408   4.9270000
  31.7619408  43.6639408   5.9750000  56.7429408  33.6139408  17.8620000
  56.4659408  34.0829408  17.0750000  56.0469408  32.9769408  18.0200000
  51.6259408  49.4869408   1.2030000  52.4039408  49.0829408   1.5860000
  51.3859408  50.1789408   1.8190000  49.8959408  37.7829408  29.2340000
  49.4559408  37.5179408  28.4260000  49.2739408  37.5689408  29.9280000
  59.2179408  53.7659408   5.8380000  59.3659408  54.3189408   5.0710000
  59.4309408  52.8809408   5.5410000  51.2669408  30.7559408   8.5830000
  51.3999408  31.0999408   9.4660000  50.5919408  30.0849408   8.6870000
  54.1839408  34.4299408  29.2750000  53.9199408  35.0219408  28.5710000
  53.4349408  34.4179408  29.8720000  57.0209408  30.6149408  23.3560000
  56.1119408  30.3729408  23.1770000  57.4589408  29.7839408  23.5400000
  57.0549408  50.3509408  13.5330000  56.2059408  50.0659408  13.1960000
  57.4329408  49.5649408  13.9270000  53.3629408  35.0449408  11.8150000
  53.7649408  35.8809408  11.5770000  54.1039408  34.4649408  11.9930000
  54.9759408  31.0289408  20.1130000  54.6729408  31.3969408  19.2830000
  54.4759408  31.4979408  20.7810000  52.5319408  53.9129408  16.2690000
  53.3199408  53.8259408  16.8050000  52.8589408  54.0669408  15.3830000
  56.3219408  37.4929408  23.9420000  56.3019408  36.7529408  24.5480000
  57.1049408  37.9849408  24.1900000  30.1739408  41.8329408  11.6060000
  30.4409408  41.6049408  12.4960000  30.8999408  42.3529408  11.2630000
  55.7369408  49.1459408   8.1800000  54.8499408  49.1279408   8.5390000
  56.1869408  48.4239408   8.6170000  46.6539408  39.5689408   7.1000000
  46.2859408  39.1019408   6.3490000  47.5579408  39.2609408   7.1550000
  48.3429408  55.7469408   6.0430000  48.8659408  54.9999408   5.7510000
  47.5969408  55.7659408   5.4440000  34.7929408  55.8129408   5.2480000
  34.3529408  56.6369408   5.4600000  34.0799408  55.1949408   5.0880000
  53.2419408  53.1659408  10.4920000  52.9709408  53.7249408   9.7630000
  52.5509408  52.5069408  10.5570000  55.7379408  56.5139408  16.0000000
  55.5399408  55.6189408  15.7260000  54.8859408  56.8929408  16.2160000
  30.0309408  36.3349408   7.2890000  29.4529408  35.8939408   6.6650000
  30.7089408  36.7369408   6.7450000  35.4109408  31.6389408  14.1010000
  36.3529408  31.5459408  13.9540000  35.1199408  32.2449408  13.4200000
  50.9789408  41.3509408  28.1040000  51.4849408  40.7389408  28.6380000
  51.4719408  41.4199408  27.2860000  42.0409408  33.7889408   0.3090000
  41.4489408  34.5119408   0.1020000  42.7159408  33.8299408  -0.3690000
  54.4599408  32.0869408  17.5660000  54.6979408  32.1839408  16.6440000
  53.9199408  31.2969408  17.5930000  38.5499408  34.3989408  19.4280000
  39.1569408  34.0959408  20.1040000  37.8149408  33.7869408  19.4750000
  57.6739408  37.2299408  28.4930000  58.1929408  38.0039408  28.2730000
  57.5139408  36.7999408  27.6530000  51.2339408  31.7299408  11.0500000
  51.0569408  31.7479408  11.9900000  51.0979408  32.6329408  10.7630000
  52.1169408  36.2239408  16.4610000  51.5759408  36.8179408  16.9810000
  51.6809408  36.1839408  15.6100000  47.0459408  39.7769408  30.0950000
  46.9329408  40.7139408  30.2500000  47.3599408  39.7189408  29.1920000
  57.9949408  31.5439408   9.2960000  57.6689408  30.7739408   9.7610000
  57.5859408  31.4939408   8.4320000  34.1849408  49.2609408  15.5620000
  33.2749408  49.4589408  15.3410000  34.2369408  49.3929408  16.5080000
  51.5719408  46.0879408  19.4610000  51.2589408  46.5549408  20.2350000
  52.0279408  45.3219408  19.8100000  54.5889408  42.8039408  18.0590000
  55.3309408  42.2919408  17.7360000  54.9889408  43.5189408  18.5550000
  32.6959408  34.0899408  21.8710000  32.3059408  33.5869408  21.1560000
  32.9999408  34.8979408  21.4560000  59.8669408  52.4849408  23.7190000
  60.5199408  52.0109408  23.2050000  59.1229408  52.5889408  23.1250000
  52.9719408  59.7709408   6.6800000  52.3179408  60.1079408   7.2920000
  53.6439408  59.3789408   7.2390000  60.0319408  39.3559408   7.3470000
  59.0959408  39.2539408   7.5190000  60.1719408  38.9109408   6.5120000
  42.1399408  37.4559408  12.2220000  43.0799408  37.4309408  12.0430000
  41.9669408  36.6499408  12.7080000  52.2569408  42.3619408  11.4830000
  51.7519408  43.1539408  11.2990000  52.2079408  41.8529408  10.6740000
  57.9939408  38.9349408  18.7130000  58.8849408  38.7869408  19.0320000
  57.4419408  38.4079408  19.2910000  55.9349408  51.0989408  28.9360000
  55.4299408  51.0179408  28.1280000  56.4369408  51.9069408  28.8260000
  32.6369408  38.9269408   8.6340000  33.0599408  39.1289408   9.4690000
  31.7709408  39.3279408   8.7010000  31.9669408  38.2519408  18.4270000
  32.8179408  38.6559408  18.5950000  31.4089408  38.5619408  19.1400000
  57.5039408  35.9579408  12.6760000  57.6349408  35.1329408  12.2080000
  57.4329408  36.6169408  11.9850000  36.0659408  33.5049408   3.3350000
  35.7129408  34.3689408   3.5490000  35.3759408  33.0859408   2.8200000
  50.1629408  33.2489408   7.1740000  50.7889408  32.6829408   7.6270000
  49.4289408  33.3299408   7.7820000  46.8479408  59.6619408  10.6200000
  46.3209408  59.0759408  11.1630000  46.2789408  59.8849408   9.8840000
  35.8869408  40.2809408   5.3640000  35.6359408  40.8369408   6.1020000
  35.8729408  40.8659408   4.6070000  52.0509408  57.8479408  21.3780000
  52.2919408  57.3129408  20.6220000  52.4079408  58.7149408  21.1820000
  56.0049408  58.4509408  20.5770000  55.3879408  57.8689408  20.1320000
  55.6789408  59.3319408  20.3920000  45.9519408  45.9449408   0.6750000
  45.0699408  45.6069408   0.8280000  46.3909408  45.2529408   0.1800000
  52.1649408  37.7679408   8.6350000  53.0789408  37.4839408   8.6030000
  52.1279408  38.5239408   8.0490000  54.3869408  40.8979408   7.2380000
  54.6949408  41.3449408   8.0260000  55.0989408  41.0059408   6.6070000
  50.4669408  57.5979408  16.5020000  50.0149408  58.4079408  16.7400000
  49.9129408  56.9009408  16.8520000  47.1799408  54.4859408  11.5940000
  47.1339408  54.0919408  10.7230000  47.8769408  55.1389408  11.5260000
  57.1109408  37.9229408  10.7590000  56.6699408  38.6599408  11.1820000
  57.2859408  38.2279408   9.8680000  54.4309408  38.2329408   0.1660000
  54.9999408  38.8329408  -0.3160000  54.9499408  37.9689408   0.9260000
  57.6649408  47.8339408  20.4340000  57.0099408  47.9209408  21.1270000
  57.7929408  48.7259408  20.1110000  50.4459408  35.7249408   5.9510000
  50.6899408  34.9389408   6.4390000  51.2809408  36.0999408   5.6680000
  34.0989408  47.2339408  20.9040000  33.5579408  47.6299408  20.2210000
  34.7849408  47.8809408  21.0720000  53.0409408  55.6989408   7.7480000
  52.2169408  56.1149408   7.4950000  53.0589408  54.8799408   7.2530000
  45.0709408  33.1099408  11.9730000  45.9309408  32.7019408  11.8700000
  44.5769408  32.4959408  12.5170000  31.2549408  36.8109408  14.1630000
  30.3669408  36.7379408  14.5100000  31.5479408  37.6809408  14.4330000
  31.2039408  48.3319408   8.1590000  31.7869408  48.4599408   8.9080000
  30.4139408  47.9419408   8.5330000  40.8509408  48.0429408  20.5640000
  41.5169408  47.8769408  19.8970000  40.6929408  47.1879408  20.9640000
  55.3289408  43.5029408  11.5810000  55.0329408  44.2309408  12.1270000
  56.1189408  43.1829408  12.0170000  57.1119408  57.8559408  14.3000000
  56.6299408  57.3489408  14.9530000  58.0099408  57.8809408  14.6300000
  54.7879408  32.1149408   5.8990000  54.1839408  31.3719408   5.9120000
  55.6579408  31.7159408   5.9040000  49.4179408  45.1679408  16.0930000
  50.2329408  44.6729408  16.0060000  49.6999408  46.0539408  16.3210000
  57.7659408  43.5989408   3.8470000  57.7389408  43.8419408   4.7720000
  57.9009408  44.4269408   3.3850000  35.1689408  44.5189408  16.3780000
  35.8409408  44.4369408  17.0540000  34.4199408  44.9079408  16.8290000
  52.8469408  44.3839408  29.2860000  53.0729408  45.2939408  29.4810000
  52.3399408  44.4319408  28.4760000  54.5049408  33.7859408   8.3370000
  54.6659408  33.1259408   7.6630000  55.3689408  33.9629408   8.7110000
  57.8919408  45.9599408   1.8140000  57.0629408  45.4949408   1.6950000
  58.2699408  46.0039408   0.9360000  51.4209408  35.9589408  13.7260000
  50.7449408  36.4539408  13.2630000  52.0389408  35.6999408  13.0420000
  34.4059408  40.8699408   1.0480000  33.6999408  41.4429408   1.3470000
  35.1239408  41.0339408   1.6600000  47.9489408  47.1749408  11.2960000
  47.9059408  46.2389408  11.0990000  48.8179408  47.2979408  11.6800000
  55.4809408  41.9639408   9.4060000  55.1199408  42.5119408  10.1030000
  56.2799408  41.5939408   9.7810000  57.2379408  34.9699408   8.0610000
  57.3909408  35.8909408   8.2740000  57.5609408  34.8749408   7.1650000
  54.1389408  38.9709408  24.3760000  53.4629408  38.4299408  23.9690000
  54.9209408  38.4189408  24.3760000  46.7859408  48.4209408   1.6810000
  46.7219408  47.5299408   1.3370000  47.4129408  48.8559408   1.1040000
  52.8489408  43.5719408  19.9600000  53.5609408  43.2709408  19.3950000
  52.1069408  43.0129408  19.7290000  53.2589408  30.4689408  14.2250000
  53.7039408  29.7619408  13.7580000  53.9489408  31.1049408  14.4120000
  38.5139408  48.9249408   4.6940000  38.4449408  47.9949408   4.9100000
  37.8739408  49.0569408   3.9950000  30.9149408  42.1979408   3.5130000
  30.7669408  42.8599408   2.8380000  30.2449408  41.5339408   3.3490000
  46.2619408  35.6629408  11.8050000  47.1559408  35.3529408  11.9450000
  45.7269408  34.8699408  11.8260000  55.2609408  32.5219408  15.1500000
  56.1599408  32.1979408  15.2140000  55.1129408  32.6349408  14.2110000
  56.0369408  39.7699408  12.4210000  56.3529408  39.1019408  13.0300000
  55.0999408  39.8379408  12.6050000  53.0209408  38.4339408   3.5050000
  53.2149408  39.3699408   3.4500000  53.4379408  38.1499408   4.3190000
  48.3969408  31.7669408   4.5070000  48.1719408  31.0319408   5.0770000
  49.3529408  31.8069408   4.5340000  57.9889408  39.2129408  25.4190000
  58.5799408  39.2639408  26.1700000  57.4759408  40.0199408  25.4620000
  59.4079408  50.4649408  12.4830000  58.5159408  50.4729408  12.8300000
  59.2959408  50.4509408  11.5330000  49.9099408  38.3669408  10.0660000
  49.9099408  39.2509408   9.6990000  50.6139408  37.9149408   9.6030000
  52.6919408  41.3699408  26.1520000  52.7639408  40.5559408  25.6530000
  53.5839408  41.5479408  26.4510000  52.3429408  47.8229408  13.7280000
  52.4789408  48.5569408  14.3260000  51.4959408  47.9999408  13.3180000
  48.5539408  48.9259408  24.6820000  48.7939408  48.2999408  25.3660000
  49.3529408  49.4279408  24.5250000  30.9789408  41.7839408   6.4660000
  30.8059408  41.5689408   5.5490000  30.8379408  40.9619408   6.9360000
  48.5449408  36.2349408   8.9460000  48.6869408  36.3049408   8.0020000
  48.8589408  37.0669408   9.2990000  47.5829408  32.1169408  11.6990000
  47.5359408  31.9249408  12.6360000  47.4419408  31.2719408  11.2740000
  53.0879408  36.0449408   2.2860000  53.1179408  36.9629408   2.5550000
  52.5769408  36.0479408   1.4770000  49.4299408  59.0179408   0.8690000
  50.3869408  59.0099408   0.8630000  49.1899408  58.4979408   1.6360000
  53.0929408  34.5809408  26.6170000  53.7929408  34.1529408  26.1250000
  52.4559408  34.8409408  25.9520000  59.4029408  51.3029408  16.8030000
  59.1189408  52.1149408  16.3830000  60.2919408  51.4879408  17.1050000
  59.9999408  33.3119408   8.7350000  59.2879408  32.6869408   8.8720000
  59.6239408  34.1599408   8.9690000  37.9229408  30.9289408   7.0610000
  38.3859408  31.4039408   7.7510000  37.6119408  31.6119408   6.4670000
  56.0629408  36.2019408   2.8730000  56.7759408  36.4759408   2.2960000
  55.4759408  35.7009408   2.3070000  55.4119408  50.8149408   1.5320000
  55.4999408  50.9999408   0.5970000  56.2239408  50.3649408   1.7650000
  58.3659408  35.4669408  19.3010000  58.8039408  35.9929408  18.6320000
  58.0599408  34.6899408  18.8330000  43.7059408  30.8079408  28.7940000
  42.8089408  30.6749408  29.0990000  44.2449408  30.6919408  29.5770000
  50.9419408  34.3839408  17.7550000  50.5819408  33.9059408  17.0080000
  51.5239408  35.0359408  17.3640000  49.5519408  43.4549408  29.3200000
  49.6209408  42.9329408  30.1200000  49.9389408  42.9039408  28.6400000
  59.4049408  39.7769408   1.2160000  59.7829408  39.6169408   0.3520000
  58.8879408  38.9919408   1.4010000  53.8139408  46.7889408  29.7140000
  53.7769408  47.3819408  30.4640000  54.6549408  46.9789408  29.2980000
  32.6029408  46.3849408  27.6050000  32.3689408  46.0419408  26.7430000
  33.5349408  46.1849408  27.6980000  51.4199408  43.2069408  24.2540000
  51.6209408  42.3409408  24.6100000  51.2789408  43.0559408  23.3200000
  54.3839408  46.4509408  26.5200000  54.4989408  47.3369408  26.1780000
  54.0379408  46.5779408  27.4040000  59.1759408  40.3779408  22.4850000
  58.2839408  40.5879408  22.2080000  59.0939408  40.1619408  23.4140000
  57.5159408  41.6489408  18.8270000  57.5849408  40.6959408  18.7670000
  57.6049408  41.8379408  19.7610000  58.1189408  43.0759408  23.9840000
  58.7619408  42.6759408  24.5710000  57.4529408  43.4369408  24.5690000
  30.9759408  43.9229408  26.7960000  31.2779408  44.0099408  27.7000000
  31.7439408  43.6149408  26.3150000  54.1129408  31.7349408  28.1150000
  54.7809408  31.4299408  27.5010000  54.4059408  32.6089408  28.3730000
  51.7639408  43.3609408   2.3840000  51.7739408  43.7069408   1.4920000
  50.9559408  42.8499408   2.4340000  30.6829408  34.4809408  26.5800000
  30.8219408  34.3349408  25.6450000  30.8769408  35.4089408  26.7100000
  58.0309408  55.7699408   0.2010000  57.6519408  56.3839408  -0.4290000
  58.7909408  56.2309408   0.5560000  32.9169408  40.2559408  22.9200000
  32.3259408  40.8239408  22.4250000  33.4999408  40.8599408  23.3800000
  51.1939408  34.9999408  24.4080000  50.3499408  35.2639408  24.7730000
  51.2559408  34.0639408  24.5980000  56.5439408  35.5789408  25.9390000
  55.8209408  34.9659408  25.8060000  57.3229408  35.0939408  25.6660000
  58.7599408  58.1839408   3.0480000  58.8759408  57.2849408   3.3560000
  59.4779408  58.3219408   2.4310000  32.6489408  37.0719408  23.3300000
  32.9159408  37.8839408  22.8980000  32.1039408  36.6239408  22.6820000
  52.4329408  54.4709408   0.8190000  51.6569408  54.3989408   1.3750000
  52.5059408  53.6149408   0.3970000  57.0089408  37.7539408  20.9100000
  57.1639408  37.5669408  21.8360000  56.1749408  37.3249408  20.7160000
  33.2349408  48.6979408  24.7910000  32.6099408  47.9739408  24.8150000
  34.0829408  48.2909408  24.9680000  35.1829408  45.2449408  28.7310000
  35.2499408  44.6459408  27.9880000  36.0909408  45.4169408  28.9820000
  49.5569408  49.2589408   4.7920000  49.8279408  48.5009408   4.2750000
  49.5719408  49.9889408   4.1730000  56.9399408  40.5709408   5.5480000
  57.2969408  41.4359408   5.7460000  57.5429408  40.2049408   4.9000000
  52.1869408  37.3489408  23.2340000  52.6329408  37.2299408  22.3960000
  51.9849408  36.4599408  23.5270000  53.0549408  56.8219408  15.9560000
  52.1179408  56.8199408  16.1500000  53.1779408  56.0819408  15.3610000
  56.0829408  44.9759408  22.9120000  56.8299408  44.5689408  22.4730000
  56.1679408  44.7089408  23.8270000  31.7139408  34.7479408   4.2270000
  31.3929408  34.3309408   3.4270000  31.0859408  34.4889408   4.9010000
  56.7119408  58.8939408   1.2240000  57.5319408  58.5429408   1.5710000
  56.3319408  59.3829408   1.9540000  54.2559408  53.5429408  18.3680000
  54.2759408  52.7569408  18.9150000  55.1489408  53.6239408  18.0320000
  57.4089408  58.0439408  28.3580000  56.8659408  58.5749408  28.9420000
  58.0689408  58.6529408  28.0260000  36.1619408  51.5309408  25.3790000
  36.6229408  52.3089408  25.0660000  36.8009408  50.8229408  25.2930000
  54.1759408  48.5089408   1.7660000  54.5339408  49.3739408   1.5650000
  54.8279408  48.1069408   2.3410000  55.2449408  45.1359408  19.2390000
  54.6809408  45.3399408  19.9860000  55.0279408  45.8009408  18.5860000
  57.8889408  32.9389408   0.7890000  57.1389408  32.3659408   0.9500000
  57.5709408  33.8159408   1.0000000  47.5889408  35.9449408  21.8650000
  47.9269408  35.0509408  21.9150000  48.2399408  36.4199408  21.3480000
  48.6329408  33.7929408  27.6990000  49.4459408  33.2949408  27.6140000
  48.5859408  34.0199408  28.6280000  59.2179408  41.7099408  26.2810000
  59.3859408  41.1539408  27.0420000  59.5759408  42.5639408  26.5240000
  50.0679408  36.6019408  20.6770000  50.4109408  35.7399408  20.4420000
  50.8469408  37.1369408  20.8290000  59.4139408  33.1659408  16.0720000
  59.2369408  32.3849408  16.5970000  58.9069408  33.8589408  16.4960000
  56.1419408  42.3979408  27.6270000  55.4329408  42.2329408  28.2480000
  56.9029408  42.5879408  28.1750000  47.8799408  37.6249408  24.1220000
  47.7579408  36.6759408  24.0920000  47.0159408  37.9709408  24.3480000
  51.5639408  45.6829408  25.4200000  52.2419408  45.5029408  26.0710000
  51.3869408  44.8329408  25.0160000  59.8499408  32.5939408  28.7080000
  59.3119408  32.9239408  29.4270000  59.7199408  33.2259408  28.0010000
  54.0009408  34.7069408   5.0710000  53.8849408  34.5229408   4.1390000
  54.2479408  33.8649408   5.4530000  58.6979408  34.9809408  23.9730000
  59.2289408  35.6649408  24.3820000  59.2709408  34.2149408  23.9480000
  32.5169408  33.7909408  28.9940000  32.3399408  34.7299408  29.0370000
  32.0049408  33.4829408  28.2460000  39.8899408  41.8059408  17.1790000
  40.2009408  41.2239408  17.8720000  40.1229408  41.3559408  16.3660000
  32.2539408  45.9619408  24.7120000  31.4929408  45.4689408  24.4070000
  33.0069408  45.4519408  24.4130000  50.1359408  46.2199408  28.9780000
  49.9219408  45.3049408  28.7990000  50.5769408  46.2019408  29.8280000
  50.0029408  39.2039408  23.4090000  50.8009408  38.6759408  23.4560000
  49.3039408  38.6049408  23.6730000  53.6059408  42.7209408  14.1930000
  53.3069408  42.6279408  13.2890000  53.8659408  43.6389408  14.2670000
  51.9269408  48.4589408  27.4240000  51.6859408  49.2179408  27.9550000
  51.2059408  47.8409408  27.5460000  50.6599408  50.6539408  28.5530000
  50.8069408  50.9329408  29.4560000  50.5649408  51.4699408  28.0610000
  53.0969408  37.0939408  20.7320000  53.5719408  37.7899408  20.2780000
  53.5829408  36.2959408  20.5220000  30.1209408  37.1739408  25.0360000
  31.0009408  37.3079408  24.6820000  29.6779408  38.0119408  24.9010000
  51.2829408  34.2129408  10.2370000  52.1709408  34.4309408  10.5200000
  50.9569408  35.0169408   9.8310000  35.2779408  41.5559408   7.5480000
  34.8449408  40.9229408   8.1220000  35.5749408  42.2489408   8.1370000
  36.0519408  36.0389408  12.9900000  36.7619408  35.9259408  12.3580000
  35.9799408  36.9859408  13.1040000  55.8779408  44.2189408  25.3820000
  55.9199408  43.5969408  26.1090000  55.3539408  44.9449408  25.7190000
  56.9689408  56.1229408  22.1750000  57.8909408  56.2139408  22.4190000
  56.8059408  56.8519408  21.5770000  30.5089408  39.7659408  13.8980000
  29.8269408  39.7809408  14.5700000  30.2249408  39.0889408  13.2830000
  52.0069408  43.9469408  16.1180000  52.6479408  43.3789408  15.6900000
  52.4899408  44.3509408  16.8390000  51.3509408  53.5839408  27.1550000
  52.0519408  54.1379408  26.8110000  50.8199408  54.1729408  27.6900000
  33.1369408  45.9089408  17.4420000  33.2879408  46.7359408  17.8990000
  32.3239408  46.0479408  16.9560000  54.1139408  33.7159408  21.1230000
  54.5879408  34.4759408  20.7840000  54.5419408  33.5189408  21.9560000
  29.8739408  39.2279408  27.4500000  30.4399408  39.4969408  26.7260000
  30.4529408  38.7489408  28.0430000  43.7419408  36.4529408  15.6390000
  44.2449408  36.8479408  14.9270000  43.4279408  37.1979408  16.1520000
  58.1879408  42.5169408  29.3490000  59.0379408  42.9559408  29.3450000
  58.2049408  41.9679408  30.1330000  33.9139408  44.3159408  20.0960000
  33.3239408  45.0459408  20.2810000  33.8699408  44.2069408  19.1460000
  49.3529408  39.0949408  19.9650000  48.9699408  39.8979408  20.3180000
  49.1119408  38.4159408  20.5960000  47.2159408  32.2419408  14.2630000
  47.4569408  31.6839408  15.0030000  46.9959408  33.0849408  14.6600000
  35.4609408  44.3169408  26.1370000  34.8509408  43.6819408  25.7600000
  36.2679408  43.8219408  26.2740000  36.1759408  33.6459408  23.8610000
  37.0319408  33.4339408  24.2340000  35.6269408  33.8449408  24.6190000
  30.6509408  44.1239408  23.5250000  29.7119408  43.9479408  23.5810000
  30.9809408  43.4709408  22.9080000  32.0539408  42.5049408  21.6720000
  32.7779408  43.0489408  21.3630000  31.3189408  42.7389408  21.1060000
  57.4739408  38.2959408   7.3770000  57.0789408  39.0559408   6.9490000
  57.4529408  37.6089408   6.7110000  34.6389408  38.2059408   0.3610000
  34.5499408  39.1419408   0.5400000  35.5799408  38.0399408   0.4160000
  33.5789408  35.2939408  14.7230000  34.2869408  35.7469408  14.2640000
  32.8469408  35.9109408  14.7040000  44.3679408  38.5949408  20.4910000
  44.4269408  39.5469408  20.5680000  44.3979408  38.4279408  19.5490000
  32.4339408  59.4479408  21.3220000  31.7669408  58.7629408  21.3040000
  32.1439408  60.0829408  20.6670000  49.6399408  47.0629408  21.6660000
  50.2749408  47.2579408  22.3550000  49.4069408  47.9179408  21.3040000
  57.1349408  42.3819408  21.4320000  56.3539408  41.8949408  21.6950000
  57.7049408  42.3559408  22.2000000  31.7099408  34.5589408  17.3620000
  31.2679408  34.1129408  16.6390000  31.0809408  35.2169408  17.6580000
  33.7859408  33.1389408   5.5410000  34.7399408  33.2159408   5.5740000
  33.5029408  33.8839408   5.0110000  52.3099408  40.3559408  21.7640000
  51.7209408  41.1059408  21.6740000  51.7629408  39.6659408  22.1410000
  58.6129408  50.5529408  20.3810000  59.2029408  50.8629408  21.0670000
  58.5069408  51.3039408  19.7970000  48.5159408  55.7009408   0.7170000
  48.6129408  56.6029408   1.0230000  49.1969408  55.5999408   0.0510000
  54.3199408  45.3179408  13.4330000  53.7379408  46.0469408  13.2200000
  54.8819408  45.6559408  14.1310000  52.5469408  45.5769408   4.2880000
  51.8889408  46.0879408   3.8160000  52.4899408  44.7009408   3.9070000
  49.5539408  30.0589408  17.2370000  49.8519408  30.3489408  16.3750000
  48.6799408  30.4369408  17.3290000  54.5779408  56.1839408  19.7680000
  55.3119408  55.7339408  19.3490000  53.8019408  55.8429408  19.3220000
  51.9709408  59.7309408   4.2900000  51.4919408  60.5529408   4.3860000
  52.2929408  59.5359408   5.1700000  49.7779408  53.9979408  13.5600000
  50.2779408  54.1409408  12.7560000  50.3799408  53.5269408  14.1360000
  46.2369408  32.5929408   7.0360000  46.4979408  31.7169408   6.7530000
  47.0569408  33.0199408   7.2820000  47.8549408  33.6489408   8.8230000
  48.0219408  34.5789408   8.9790000  47.6949408  33.2839408   9.6930000
  50.3289408  54.1079408   2.8240000  49.6049408  54.5969408   2.4350000
  50.2499408  54.2699408   3.7640000  51.6989408  30.0119408  19.4060000
  52.3109408  29.7979408  18.7010000  50.9559408  30.4209408  18.9620000
  57.1489408  51.4149408   8.1260000  57.0169408  51.9989408   8.8730000
  56.3659408  50.8649408   8.1090000  51.1139408  32.1109408   4.7390000
  51.1109408  32.6599408   5.5240000  51.5609408  32.6399408   4.0780000
  52.0079408  40.1399408  16.2200000  51.9829408  40.3189408  15.2790000
  52.8879408  39.7949408  16.3750000  46.6089408  48.0909408  13.3550000
  46.7289408  47.5009408  12.6110000  47.4469408  48.5439408  13.4390000
  57.8639408  47.4319408   9.3610000  57.7469408  47.2979408  10.3010000
  58.3079408  48.2779408   9.2930000  31.0329408  55.6039408  13.9710000
  30.2089408  55.2399408  14.2930000  31.2309408  55.0919408  13.1870000
  31.9339408  59.6879408  18.6420000  32.2469408  58.7839408  18.6550000
  31.5109408  59.7829408  17.7880000  31.1559408  48.4609408  20.0400000
  30.2709408  48.7809408  19.8660000  31.0349408  47.5459408  20.2950000
  32.0799408  58.3339408   3.5080000  31.6479408  58.7749408   2.7770000
  32.4669408  59.0439408   4.0210000  47.4589408  49.6149408   6.9330000
  46.5709408  49.2699408   7.0270000  47.7209408  49.3639408   6.0470000
  55.5019408  55.3549408  28.7860000  56.3499408  54.9159408  28.7100000
  55.0439408  55.1329408  27.9750000  56.6749408  47.5639408  13.5590000
  56.2789408  47.7839408  14.4030000  56.8119408  46.6169408  13.5990000
  49.9319408  53.5469408   5.4520000  49.4589408  52.7149408   5.4690000
  50.8459408  53.3059408   5.6030000  53.0439408  51.6259408  13.4910000
  52.5689408  51.6099408  12.6600000  53.9519408  51.4399408  13.2520000
  51.5259408  57.0239408   3.9340000  51.8329408  56.7029408   3.0860000
  51.8009408  57.9409408   3.9570000  52.5659408  53.1829408   6.2490000
  52.5139408  52.3989408   6.7960000  53.4839408  53.2299408   5.9820000
  32.7359408  53.2419408  21.7040000  32.8889408  53.6109408  20.8350000
  32.5469408  53.9999408  22.2570000  55.2289408  33.2469408  12.4100000
  54.8559408  32.6399408  11.7710000  56.0849408  33.4789408  12.0500000
  33.0529408  56.7679408  15.5720000  32.4119408  56.2939408  15.0430000
  33.1159408  57.6289408  15.1590000  54.1119408  51.8259408   3.7350000
  54.7569408  52.4489408   4.0690000  54.4369408  51.5849408   2.8680000
  55.3229408  46.5199408   3.7300000  55.4299408  45.8639408   3.0410000
  54.4889408  46.2979408   4.1450000  31.2079408  54.3789408  28.9760000
  30.7519408  53.5889408  29.2650000  32.1189408  54.1049408  28.8680000
  55.6729408  50.8899408  23.2500000  55.9379408  51.6929408  22.8020000
  55.0279408  50.4909408  22.6670000  58.0719408  45.0429408  14.1250000
  58.3279408  44.1539408  13.8810000  58.7059408  45.6059408  13.6790000
  51.4969408  47.6769408   8.9910000  50.6869408  47.9649408   9.4120000
  51.2069408  47.1699408   8.2330000  51.3089408  51.2979408  10.9070000
  50.3719408  51.3809408  11.0840000  51.3559408  50.9219408  10.0280000
  49.9409408  55.9629408  28.3800000  49.0549408  56.3189408  28.3170000
  50.3819408  56.2749408  27.5900000  52.7679408  49.3119408  17.3790000
  52.3009408  50.0629408  17.0110000  53.4259408  49.6989408  17.9570000
  49.7129408  51.5399408   7.5910000  49.1179408  50.8719408   7.2500000
  50.5109408  51.0599408   7.8100000  53.7039408  47.7479408  10.5130000
  54.1529408  46.9339408  10.2860000  52.9529408  47.7799408   9.9200000
  57.4709408  55.8359408   6.5070000  57.7579408  54.9329408   6.6370000
  57.3959408  55.9299408   5.5570000  57.1539408  55.2229408  18.8610000
  57.2309408  54.5909408  18.1470000  57.9429408  55.7599408  18.7930000
  58.9979408  45.2499408  17.3840000  58.6679408  45.0439408  18.2580000
  58.5579408  44.6249408  16.8080000  47.0249408  52.7099408  17.6690000
  46.8809408  52.0149408  17.0260000  46.7759408  53.5139408  17.2140000
  55.5159408  32.1409408   2.2740000  54.6969408  32.6339408   2.2290000
  55.2789408  31.3189408   2.7030000  57.8379408  46.4779408   4.9610000
  57.1649408  46.4449408   4.2810000  58.2269408  47.3489408   4.8720000
  48.1619408  41.4479408  18.1310000  48.1129408  41.6889408  19.0560000
  49.0279408  41.7449408  17.8520000  41.7949408  34.1809408  15.4660000
  41.0579408  34.3869408  16.0420000  42.4969408  34.7619408  15.7580000
  54.6279408  59.7129408   3.2650000  53.6809408  59.5999408   3.3410000
  54.9819408  59.3039408   4.0550000  54.1549408  58.4689408   8.6710000
  54.9869408  57.9959408   8.6860000  53.5239408  57.8559408   9.0480000
  57.6299408  58.3429408   7.5860000  57.5669408  57.3909408   7.5050000
  57.5549408  58.5079408   8.5260000  56.7179408  53.2369408  17.1170000
  57.0469408  53.5299408  16.2670000  56.4409408  52.3329408  16.9690000
  58.6429408  53.4169408   2.1320000  59.5469408  53.7219408   2.2000000
  58.2299408  54.0239408   1.5180000  48.1019408  59.3339408  13.8490000
  48.8249408  59.9569408  13.9170000  48.5209408  58.5029408  13.6270000
  30.8829408  45.8929408  20.9960000  31.0199408  45.6469408  21.9110000
  30.0429408  45.4959408  20.7640000  59.7119408  57.0349408  18.1520000
  59.5509408  57.4989408  17.3300000  59.2639408  57.5589408  18.8150000
  37.1339408  53.6299408  17.5170000  36.9599408  54.4419408  17.0430000
  37.4829408  53.0339408  16.8540000  34.8129408  50.6049408  20.3340000
  34.8989408  51.5329408  20.5520000  34.8869408  50.1529408  21.1740000
  55.3029408  56.0099408  11.7730000  55.0519408  55.5969408  10.9470000
  54.6769408  56.7259408  11.8830000  45.4609408  53.4619408   3.0360000
  45.9439408  53.2799408   2.2300000  45.3659408  52.6069408   3.4560000
  43.5109408  57.9189408  15.3630000  44.4469408  57.8499408  15.5500000
  43.2639408  57.0499408  15.0470000  55.1669408  55.1589408   1.8110000
  54.2559408  54.8679408   1.8270000  55.3879408  55.2049408   0.8810000
  51.1539408  57.1659408   6.5480000  51.4189408  56.9389408   5.6570000
  51.5359408  58.0299408   6.7000000  47.0539408  56.8609408  28.2050000
  46.3929408  57.1089408  28.8510000  46.5519408  56.4939408  27.4770000
  46.0469408  34.5639408  15.7710000  46.0809408  34.5099408  16.7260000
  45.4529408  35.2939408  15.5940000  32.8799408  57.4629408  12.2670000
  32.0239408  57.0379408  12.2150000  33.2679408  57.3299408  11.4030000
  58.6919408  49.2009408   3.8620000  59.5599408  48.8229408   3.7170000
  58.1619408  48.8679408   3.1380000  57.3199408  48.8899408   1.5420000
  57.8129408  49.1749408   0.7720000  57.3469408  47.9339408   1.5040000
  30.1709408  55.8719408   3.6420000  30.6029408  55.3299408   2.9810000
  30.8439408  56.4929408   3.9200000  51.9069408  50.2649408   8.2860000
  51.7919408  49.3209408   8.3890000  52.4119408  50.3589408   7.4790000
  50.8209408  55.7819408  11.5460000  50.6039408  55.9449408  10.6280000
  50.7959408  56.6459408  11.9560000  57.3569408  31.1799408   6.2670000
  57.6309408  31.6629408   5.4870000  58.0139408  30.4909408   6.3660000
  48.4929408  50.8929408  11.3400000  48.2899408  50.2629408  10.6490000
  47.8709408  51.6069408  11.2050000  57.5929408  58.9229408  10.4380000
  57.4519408  59.3709408  11.2720000  58.5019408  58.6269408  10.4740000
  39.8979408  58.3239408  17.5680000  40.5479408  57.6229408  17.5210000
  39.0609408  57.8869408  17.4100000  30.6229408  55.0849408  19.8260000
  31.5509408  54.8679408  19.9130000  30.5909408  55.7159408  19.1080000
  42.2699408  46.4249408  28.7760000  42.9509408  47.0969408  28.8060000
  42.4539408  45.9319408  27.9760000  59.5049408  39.6089408   3.9390000
  59.2369408  39.4409408   3.0360000  60.3389408  39.1489408   4.0320000
  54.9399408  58.5519408  12.8940000  55.6679408  58.0659408  13.2810000
  55.3499408  59.3119408  12.4820000  56.2609408  50.5759408  16.5330000
  55.9599408  49.7359408  16.1870000  57.1519408  50.4039408  16.8380000
  30.9209408  59.9589408   9.9480000  31.4189408  59.3979408   9.3520000
  30.0779408  60.0829408   9.5120000  30.1289408  30.2789408   6.1440000
  30.1339408  30.2069408   5.1890000  30.6739408  29.5509408   6.4420000
  50.1059408  56.3139408   8.9570000  50.3829408  56.3689408   8.0430000
  49.8789408  57.2129408   9.1940000  53.6379408  59.1839408  27.3740000
  53.8629408  58.6559408  28.1400000  53.7149408  60.0889408  27.6760000
  47.8029408  31.4979408   2.0150000  47.8179408  31.3079408   2.9530000
  47.9959408  30.6579408   1.5970000  51.2849408  51.4409408   3.2030000
  52.1909408  51.6019408   3.4660000  50.9289408  52.3109408   3.0260000
  54.8339408  48.1349408  15.5300000  55.1179408  47.2749408  15.8380000
  54.2629408  48.4619408  16.2250000  55.9399408  53.0769408  10.1740000
  55.0409408  52.8989408  10.4490000  55.8779408  53.8789408   9.6550000
  37.8459408  34.6539408  28.8310000  38.2209408  34.7389408  29.7070000
  37.3629408  33.8279408  28.8550000  30.5509408  53.0329408   8.3860000
  30.1859408  53.4379408   7.6000000  29.8569408  53.1109408   9.0410000
  51.0919408  32.8469408  27.7180000  51.6289408  32.2659408  28.2570000
  51.7059408  33.5029408  27.3870000  49.0939408  55.2559408  17.6310000
  48.8449408  55.5209408  18.5160000  48.5189408  54.5169408  17.4310000
  54.6889408  56.4959408  23.9890000  55.4609408  56.4079408  23.4300000
  54.0209408  55.9579408  23.5630000  49.7889408  57.3129408  23.2930000
  50.5389408  57.1429408  22.7230000  49.6029408  58.2449408  23.1720000
  56.0789408  58.6559408   5.3270000  56.5179408  58.9459408   6.1270000
  56.5309408  57.8469408   5.0860000  51.9989408  57.5469408   1.0180000
  52.9239408  57.6119408   0.7810000  51.7279408  56.6889408   0.6910000
  47.6129408  50.7449408   3.2240000  47.4149408  49.8939408   2.8320000
  47.7729408  51.3209408   2.4770000  58.7029408  53.2359408  20.3090000
  59.5569408  53.6369408  20.1500000  58.0819408  53.8059408  19.8540000
  49.1839408  52.3919408  19.3730000  48.8759408  52.0519408  20.2130000
  48.3959408  52.4469408  18.8330000  58.9259408  49.3549408  29.1130000
  58.4939408  49.0299408  28.3230000  59.7449408  48.8629408  29.1590000
  52.4529408  52.8319408  24.3870000  53.2899408  53.2969408  24.4070000
  51.9209408  53.3219408  23.7600000  59.3329408  50.1069408   9.6110000
  60.1389408  50.5079408   9.2850000  58.7129408  50.1949408   8.8870000
  59.7389408  31.2499408  22.7270000  59.9719408  30.5979408  22.0660000
  58.7969408  31.1349408  22.8560000  44.6139408  54.3099408  28.8680000
  43.7559408  54.7329408  28.8890000  45.0889408  54.7639408  28.1720000
  31.4839408  50.5129408  26.1210000  31.9909408  49.8839408  25.6070000
  30.8779408  50.9039408  25.4910000  56.4009408  40.1289408  29.6700000
  56.3809408  40.6799408  30.4520000  56.2529408  40.7369408  28.9450000
  59.0999408  56.4319408  25.9860000  58.5239408  56.4859408  26.7480000
  58.5919408  55.9469408  25.3350000  57.4289408  54.6289408  24.5640000
  56.6139408  54.5409408  24.0710000  57.3679408  53.9629408  25.2490000
  56.4519408  48.2429408  23.9800000  56.5979408  49.0739408  23.5290000
  55.5169408  48.0689408  23.8690000  56.6279408  35.1689408  30.1560000
  55.8039408  34.7719408  29.8740000  56.6229408  36.0389408  29.7570000
  32.8429408  55.7119408  23.1490000  33.7689408  55.4969408  23.0340000
  32.8479408  56.5679408  23.5780000  53.8769408  51.7659408  27.1800000
  54.5629408  52.2469408  26.7180000  53.0929408  52.3049408  27.0720000
  58.0669408  45.0089408  20.1910000  58.0739408  45.9439408  19.9830000
  57.1889408  44.8459408  20.5340000  56.0639408  47.5379408  28.8710000
  56.7539408  46.9079408  28.6660000  56.4249408  48.3839408  28.6060000
  59.9059408  58.0329408  21.8660000  59.3759408  58.3819408  22.5830000
  60.0419408  57.1129408  22.0930000  57.5559408  53.3009408  28.4550000
  58.1949408  53.8009408  28.9620000  58.0589408  52.9369408  27.7270000
  57.8099408  47.9179408  26.6380000  57.3599408  48.3039408  25.8870000
  57.8709408  46.9859408  26.4280000  50.8229408  50.4389408  24.5460000
  51.4419408  51.1659408  24.6110000  50.8099408  50.2179408  23.6140000
  56.1169408  30.6769408  26.5390000  55.8869408  30.0879408  25.8210000
  56.9099408  30.2969408  26.9170000  54.0979408  42.2559408  29.3850000
  53.7049408  43.1289408  29.3770000  53.3609408  41.6629408  29.5350000
  33.7959408  32.6399408   1.5360000  33.1589408  33.0979408   0.9870000
  33.2689408  32.0539408   2.0780000  59.0779408  52.0099408  26.4940000
  59.7929408  51.5059408  26.8830000  59.4689408  52.4279408  25.7270000
  56.4579408  52.1029408  25.8250000  57.2999408  51.6859408  26.0080000
  56.1359408  51.6579408  25.0400000  54.2699408  59.2149408  24.6630000
  54.2869408  58.9489408  25.5820000  54.4699408  58.4149408  24.1780000
  49.3969408  52.8279408  25.2380000  49.5079408  52.1059408  24.6190000
  50.1119408  52.7199408  25.8640000  50.7379408  33.9019408  20.2470000
  50.8629408  33.9519408  19.3000000  51.6089408  34.0529408  20.6130000
  59.0199408  58.8129408  24.3330000  59.8619408  59.1639408  24.6250000
  58.8459408  58.0819408  24.9260000  46.8359408  31.2099408  27.0900000
  47.4759408  30.5949408  27.4500000  47.1229408  32.0669408  27.4050000
  56.1579408  56.4039408   3.9090000  55.6669408  57.2129408   4.0520000
  55.8099408  56.0549408   3.0890000  47.0399408  58.4119408  24.8180000
  47.5809408  58.5059408  25.6020000  47.1749408  57.5059408  24.5410000
  53.6199408  54.9529408  22.0760000  52.8519408  54.5989408  21.6270000
  54.1499408  55.3379408  21.3780000  51.2529408  53.5169408  20.7880000
  50.5179408  53.0819408  20.3570000  50.8559408  53.9929408  21.5170000
  33.1729408  59.6979408  23.8650000  32.8949408  59.4999408  22.9710000
  33.6089408  60.5479408  23.7990000  54.4219408  39.4159408  20.1160000
  55.2529408  39.6309408  20.5400000  53.7539408  39.7569408  20.7110000
  32.7039408  51.1609408   0.5350000  31.8629408  51.6189408   0.5440000
  32.8899408  51.0209408  -0.3940000  48.5739408  56.5729408  19.9790000
  49.3969408  57.0059408  20.2050000  47.9349408  56.9379408  20.5900000
  53.9579408  31.6669408  23.3620000  53.0839408  31.9459408  23.6370000
  54.0009408  30.7409408  23.6010000  58.8059408  46.1259408  29.0390000
  59.4149408  46.8549408  28.9240000  59.3669408  45.3549408  29.1220000
  53.5929408  50.4459408   6.1030000  54.4549408  50.0469408   6.2220000
  53.6239408  50.8299408   5.2270000  51.0189408  51.9559408  17.3460000
  50.6409408  52.0609408  18.2200000  51.4569408  52.7889408  17.1720000
  59.3579408  36.4659408  21.7420000  58.9689408  36.1709408  20.9190000
  59.0259408  35.8529408  22.3980000  35.0389408  50.2599408  23.3180000
  35.4329408  50.8059408  23.9980000  34.2329408  49.9279408  23.7140000
  54.5659408  57.9129408  29.5880000  54.9279408  57.0679408  29.3220000
  55.1819408  58.2429408  30.2420000  52.3159408  30.6029408   0.0200000
  52.8489408  30.3259408   0.7650000  52.9519408  30.8169408  -0.6630000
  32.0639408  32.4419408  19.6400000  32.0359408  33.1009408  18.9460000
  31.3919408  31.8059408  19.3950000  46.0279408  59.2599408  18.5900000
  45.0909408  59.1729408  18.4130000  46.1359408  58.9249408  19.4800000
  50.3859408  54.2079408  23.2040000  50.0829408  55.1069408  23.3300000
  49.8389408  53.6859408  23.7910000  30.8689408  36.2169408   0.9050000
  31.1979408  36.6709408   0.1290000  31.6129408  36.1979408   1.5060000
  34.5629408  55.8619408  25.9740000  33.6279408  56.0279408  26.0910000
  34.7009408  54.9909408  26.3480000  40.0009408  56.2329408  21.9690000
  40.8279408  55.7619408  22.0740000  40.2609408  57.1449408  21.8330000
  43.1139408  59.2469408  18.1040000  43.4209408  58.6579408  17.4150000
  42.3449408  59.6749408  17.7280000  34.1209408  43.6749408  43.7610000
  34.0209408  44.4239408  44.3480000  34.6659408  43.0579408  44.2490000
  49.4019408  47.0039408  33.4620000  49.3069408  46.1259408  33.8320000
  48.6369408  47.1089408  32.8970000  51.2879408  35.2629408  59.9310000
  50.5409408  34.9539408  60.4440000  50.9199408  35.9259408  59.3470000
  36.9639408  57.2739408  34.1330000  36.2589408  56.7169408  34.4630000
  36.9889408  58.0129408  34.7410000  51.1249408  31.1489408  51.7350000
  50.9649408  30.2999408  51.3230000  51.6349408  31.6379408  51.0890000
  36.7109408  48.7099408  51.4700000  36.3839408  49.3649408  52.0880000
  37.6529408  48.8729408  51.4250000  41.8849408  41.9679408  42.0810000
  41.2899408  41.2449408  42.2800000  42.7569408  41.5759408  42.1090000
  35.8789408  36.9689408  38.7010000  35.4139408  36.1719408  38.4480000
  35.9029408  37.4959408  37.9020000  45.1049408  47.8279408  45.6050000
  44.2939408  47.6459408  45.1300000  45.7899408  47.7719408  44.9380000
  30.6359408  44.0729408  38.5360000  29.8129408  44.3929408  38.1640000
  30.9089408  43.3719408  37.9450000  48.8559408  48.6129408  39.2840000
  48.4689408  48.1719408  40.0410000  48.1489408  49.1559408  38.9360000
  39.0639408  38.6819408  47.8260000  38.4579408  38.2489408  48.4280000
  39.3939408  37.9759408  47.2700000  41.2259408  41.3479408  35.7040000
  40.6419408  41.7979408  36.3140000  41.6789408  40.6969408  36.2400000
  47.4669408  45.2269408  47.9080000  47.9479408  45.1439408  48.7320000
  48.1319408  45.1079408  47.2300000  52.0799408  39.5039408  36.3360000
  51.9909408  39.7379408  35.4120000  52.7389408  40.1109408  36.6740000
  35.6149408  43.6859408  38.9500000  35.7649408  43.7169408  39.8950000
  34.7539408  44.0859408  38.8300000  59.3079408  48.9599408  45.2020000
  59.6479408  49.5329408  45.8900000  59.8979408  49.0979408  44.4610000
  32.5329408  37.1629408  58.8470000  33.2739408  37.5749408  59.2930000
  32.8629408  36.9599408  57.9720000  42.9309408  55.5519408  44.1980000
  43.8639408  55.3599408  44.1090000  42.5239408  55.1209408  43.4470000
  58.0369408  35.5629408  35.5490000  57.0969408  35.6829408  35.4130000
  58.2159408  34.6789408  35.2300000  48.3629408  51.3589408  30.6810000
  47.7089408  52.0489408  30.5670000  48.2789408  50.8169408  29.8970000
  40.6849408  45.9839408  36.6650000  41.1339408  46.8249408  36.7490000
  39.8769408  46.0929408  37.1670000  48.4319408  34.8569408  55.0460000
  48.1149408  34.5139408  55.8810000  48.3719408  34.1159408  54.4430000
  58.7999408  39.9389408  45.7730000  57.8609408  39.9999408  45.5990000
  58.8569408  39.5959408  46.6650000  32.3889408  50.7699408  33.8460000
  33.1819408  51.3059408  33.8470000  32.6729408  49.9199408  34.1820000
  47.9779408  44.4559408  40.6650000  47.2519408  44.3639408  40.0480000
  47.7039408  43.9559408  41.4340000  39.6549408  54.0029408  60.1860000
  39.0479408  54.5939408  59.7410000  40.5229408  54.3469408  59.9750000
  43.5299408  44.6779408  30.5350000  42.9009408  43.9769408  30.7060000
  43.0779408  45.2629408  29.9270000  46.9329408  52.0279408  43.3670000
  47.2779408  52.9039408  43.1980000  47.6629408  51.4399408  43.1730000
  34.4319408  58.7859408  56.2340000  34.8979408  58.1089408  55.7430000
  33.7839408  59.1269408  55.6170000  41.7599408  53.1179408  38.5430000
  41.6899408  53.8819408  37.9720000  42.0759408  52.4179408  37.9710000
  44.5309408  56.0489408  31.8910000  45.1549408  56.0429408  31.1650000
  44.9719408  55.5639408  32.5890000  31.5889408  37.8679408  35.1380000
  31.9129408  37.0799408  34.7030000  32.3749408  38.2939408  35.4810000
  34.3779408  31.6949408  46.6380000  33.4469408  31.8319408  46.4640000
  34.7679408  31.5709408  45.7730000  46.9779408  44.3809408  58.3850000
  47.8199408  43.9829408  58.6060000  47.1409408  44.8459408  57.5640000
  41.0189408  32.1809408  48.1460000  40.7569408  33.1019408  48.1390000
  41.6919408  32.1279408  48.8240000  45.1549408  30.6799408  38.8720000
  44.7649408  31.4279408  38.4200000  45.0899408  29.9599408  38.2450000
  45.4189408  44.0349408  43.0950000  44.8099408  43.9809408  43.8320000
  44.8679408  44.2559408  42.3440000  36.8749408  56.9259408  39.7580000
  37.0919408  57.8089408  40.0560000  37.0169408  56.9499408  38.8120000
  42.2769408  39.0759408  56.9600000  41.8759408  39.8269408  56.5240000
  42.9859408  39.4519408  57.4820000  58.5349408  45.5709408  37.6430000
  58.4489408  46.1489408  36.8850000  58.1879408  46.0809408  38.3750000
  38.3539408  36.3839408  33.5020000  39.0179408  36.9059408  33.0520000
  37.9879408  36.9769408  34.1590000  54.3849408  39.4109408  47.3650000
  54.7209408  38.5179408  47.2950000  54.2909408  39.5589408  48.3060000
  37.7939408  43.7699408  37.0920000  37.1589408  43.5089408  37.7590000
  38.3649408  43.0079408  36.9930000  39.0859408  32.8069408  42.3010000
  39.2659408  33.2629408  41.4790000  39.7729408  33.1059408  42.8980000
  45.8509408  43.9929408  39.0110000  45.1649408  44.5659408  38.6690000
  45.4019408  43.1709408  39.2080000  37.6489408  47.3009408  42.5020000
  37.1329408  47.8939408  43.0490000  37.6139408  46.4609408  42.9600000
  52.4549408  33.6049408  32.6640000  51.6819408  33.5749408  32.1000000
  52.7979408  34.4919408  32.5530000  51.2289408  50.5009408  44.9470000
  50.8759408  51.0379408  45.6570000  51.9479408  51.0209408  44.5870000
  37.2079408  38.2029408  59.8520000  37.3599408  38.7419408  60.6280000
  38.0649408  38.1409408  59.4310000  40.4099408  55.8839408  56.7950000
  40.4019408  56.2829408  55.9250000  39.6159408  56.2129408  57.2170000
  41.1919408  56.2969408  31.5580000  41.2509408  57.2469408  31.6600000
  41.6389408  55.9449408  32.3270000  34.6869408  33.6109408  42.3470000
  33.8339408  33.9499408  42.0730000  35.2309408  34.3909408  42.4540000
  41.3659408  50.8169408  42.9800000  41.3449408  51.5859408  42.4090000
  42.2869408  50.5579408  42.9990000  45.5709408  34.5019408  53.2080000
  46.1229408  35.1429408  52.7600000  45.2669408  33.9189408  52.5130000
  44.5329408  49.5259408  37.8070000  44.0209408  48.9609408  38.3850000
  43.9069408  50.1799408  37.4950000  34.9169408  44.0799408  36.0540000
  35.2429408  43.2809408  36.4690000  34.3959408  44.5079408  36.7330000
  41.9419408  34.9309408  48.4310000  42.8109408  35.3169408  48.3240000
  41.7659408  34.9919408  49.3700000  32.9999408  53.7209408  34.9930000
  32.5599408  53.1309408  35.6050000  33.7909408  53.2499408  34.7310000
  39.3909408  35.9979408  43.5600000  38.4679408  35.8209408  43.7410000
  39.5449408  35.6099408  42.6990000  36.4589408  49.0469408  44.2110000
  35.7969408  48.9559408  44.8960000  37.0899408  49.6709408  44.5690000
  42.7269408  34.7419408  43.0350000  43.5559408  34.2759408  42.9230000
  42.3699408  34.4009408  43.8560000  40.9189408  45.5149408  41.9010000
  40.0709408  45.1079408  41.7250000  40.7289408  46.4519408  41.9560000
  41.2779408  38.6519408  39.3500000  41.3409408  37.9429408  39.9910000
  40.6729408  39.2789408  39.7440000  37.3769408  58.8119408  31.6800000
  36.6809408  58.2869408  31.2850000  37.2869408  58.6599408  32.6210000
  45.6899408  48.6069408  34.5490000  45.8669408  48.6029408  33.6090000
  46.2479408  47.9129408  34.9010000  36.0069408  30.8799408  34.4630000
  36.8559408  30.4709408  34.2940000  36.1609408  31.8149408  34.3310000
  39.4119408  38.7209408  36.5640000  39.9009408  38.4549408  37.3430000
  40.0189408  39.2819408  36.0810000  40.9679408  48.3959408  45.9660000
  41.6029408  47.8829408  45.4660000  40.1389408  47.9329408  45.8490000
  39.0729408  40.0809408  39.9790000  39.3089408  40.3209408  40.8750000
  38.1399408  39.8699408  40.0250000  38.6629408  53.0849408  35.7270000
  39.1639408  52.7029408  36.4480000  39.3049408  53.2099408  35.0280000
  42.1909408  33.0269408  36.6490000  42.5829408  33.5069408  37.3790000
  42.8259408  32.3399408  36.4440000  32.7639408  40.3209408  45.9390000
  32.1979408  40.7929408  45.3280000  32.1579408  39.8679408  46.5260000
  33.7929408  35.9289408  48.5460000  34.5359408  35.3939408  48.2680000
  33.0419408  35.5539408  48.0850000  37.2649408  35.4869408  40.7700000
  36.6499408  36.0649408  40.3180000  37.6409408  34.9459408  40.0760000
  34.4899408  34.3149408  38.6110000  33.8189408  33.6769408  38.8510000
  34.7519408  34.0669408  37.7250000  48.2059408  41.1969408  41.0920000
  48.7899408  41.1579408  40.3350000  47.3289408  41.0939408  40.7250000
  53.6789408  49.2509408  55.6230000  52.9449408  48.9459408  56.1550000
  54.0749408  49.9529408  56.1400000  33.9959408  40.0319408  49.2360000
  34.7059408  39.4889408  48.8920000  34.1359408  40.8909408  48.8370000
  43.6049408  39.6929408  33.1680000  44.0819408  38.9459408  33.5280000
  44.2209408  40.4239408  33.2310000  40.6809408  41.2849408  30.4750000
  40.9629408  41.9649408  29.8630000  40.5939408  41.7389408  31.3140000
  36.1979408  58.7859408  37.3920000  35.6229408  59.3219408  37.9370000
  36.9389408  59.3569408  37.1890000  45.6389408  36.6119408  38.9870000
  45.6199408  36.6119408  39.9440000  46.5409408  36.8459408  38.7660000
  46.1629408  50.3279408  39.8410000  45.8969408  50.1039408  38.9500000
  45.7949408  49.6309408  40.3840000  48.8369408  49.6889408  43.6890000
  49.6529408  49.8079408  44.1740000  49.0429408  49.9709408  42.7980000
  37.3569408  44.9479408  44.1060000  36.7409408  44.6609408  44.7800000
  37.7119408  44.1349408  43.7450000  52.1589408  41.9809408  38.6940000
  52.2029408  42.9319408  38.6020000  52.8179408  41.6489408  38.0840000
  31.5759408  31.8369408  42.3790000  31.6699408  31.3979408  41.5340000
  31.7809408  32.7539408  42.1980000  39.7979408  43.5629408  50.7020000
  39.9119408  42.6129408  50.6900000  40.2249408  43.8659408  49.9000000
  35.8779408  41.1339408  58.3530000  36.6849408  41.2089408  58.8610000
  35.1959408  40.9759408  59.0060000  42.6309408  43.1459408  44.3340000
  42.2629408  43.3379408  43.4710000  42.9819408  42.2589408  44.2530000
  40.1429408  38.5439408  32.9460000  40.7999408  38.6049408  32.2530000
  40.5939408  38.8529408  33.7320000  34.7069408  45.4199408  53.1280000
  34.5639408  45.8999408  52.3120000  34.9709408  46.0909408  53.7570000
  32.9149408  46.4549408  44.3630000  33.5279408  47.1049408  44.7050000
  32.2449408  46.3749408  45.0420000  39.9729408  31.6209408  39.1660000
  40.8859408  31.7839408  38.9290000  40.0159408  31.2549408  40.0490000
  42.5159408  39.3919408  37.0440000  42.9239408  38.9559408  36.2950000
  42.6179408  38.7729408  37.7670000  50.6819408  44.5549408  40.8580000
  50.4699408  44.9719408  41.6930000  49.8309408  44.3559408  40.4670000
  48.2509408  40.8129408  57.5970000  47.9399408  40.8729408  56.6940000
  49.1989408  40.9269408  57.5330000  35.0659408  42.1979408  48.1450000
  35.8319408  41.7159408  47.8330000  34.6889408  42.5859408  47.3550000
  34.4699408  36.9909408  51.0950000  34.3759408  36.7169408  50.1820000
  34.4599408  37.9469408  51.0610000  46.7989408  38.8369408  51.9130000
  46.1259408  38.2629408  51.5470000  47.3839408  38.2479408  52.3890000
  47.3339408  31.3149408  47.3720000  47.1459408  32.1649408  47.7700000
  46.5919408  30.7639408  47.6200000  34.3569408  54.6489408  43.1330000
  35.1819408  55.0809408  42.9100000  33.8739408  55.2999408  43.6410000
  36.0859408  44.8579408  41.4430000  35.4669408  45.3769408  40.9300000
  35.9959408  45.1919408  42.3360000  43.4409408  46.1729408  38.5040000
  43.3789408  45.9409408  37.5780000  42.7799408  46.8539408  38.6260000
  38.5019408  34.1379408  38.6120000  38.8629408  34.4539408  37.7840000
  38.9809408  33.3279408  38.7890000  39.2219408  59.9579408  49.5540000
  39.1209408  59.3189408  48.8490000  39.7729408  60.6449408  49.1780000
  35.8979408  56.1729408  45.7840000  34.9769408  56.4009408  45.6590000
  36.2559408  56.1269408  44.8980000  34.1719408  38.0399408  36.5580000
  33.5999408  38.3309408  37.2680000  34.3229408  38.8259408  36.0330000
  50.9309408  38.1219408  47.8530000  50.4899408  38.4399408  48.6410000
  51.2959408  38.9089408  47.4480000  33.5469408  59.1949408  44.3880000
  33.4529408  58.7309408  43.5560000  34.0779408  59.9629408  44.1760000
  37.6459408  45.5889408  30.5610000  38.1379408  44.9059408  31.0160000
  38.1499408  46.3889408  30.7110000  39.7719408  32.8839408  35.6410000
  40.6209408  32.7349408  36.0590000  39.7999408  32.3549408  34.8440000
  39.0259408  46.3989408  45.6100000  38.7289408  46.0099408  46.4320000
  38.4029408  46.0809408  44.9560000  54.9449408  40.7089408  52.4340000
  54.4059408  40.1399408  52.9830000  54.3479408  41.3989408  52.1430000
  42.9919408  36.0789408  50.9050000  43.2669408  36.9929408  50.8340000
  43.4549408  35.7489408  51.6750000  43.9919408  40.0189408  59.0960000
  44.7189408  39.4589408  59.3680000  44.3539408  40.5539408  58.3890000
  45.0069408  37.1169408  58.0480000  45.2319408  37.0419408  58.9750000
  44.1499408  36.6969408  57.9740000  49.7759408  47.0209408  36.7930000
  49.6259408  47.7959408  36.2530000  49.1299408  47.0889408  37.4960000
  54.9269408  45.3199408  39.5870000  55.3159408  44.5869408  40.0650000
  55.3279408  45.2809408  38.7190000  35.7419408  41.5499408  42.2860000
  35.5099408  41.7689408  43.1890000  36.5849408  41.9799408  42.1450000
  59.0709408  32.3679408  43.5800000  59.1899408  32.7229408  44.4610000
  59.9599408  32.2269408  43.2550000  45.3469408  37.8619408  43.5700000
  45.5059408  37.1419408  42.9600000  46.2199408  38.1279408  43.8590000
  43.9419408  57.7469408  41.2050000  43.6119408  57.6369408  42.0970000
  43.2129408  58.1429408  40.7270000  31.1999408  47.8119408  59.4490000
  31.9049408  48.0979408  60.0290000  31.6469408  47.3699408  58.7280000
  32.4759408  43.4329408  41.5170000  32.9669408  43.3179408  42.3310000
  32.3929408  44.3819408  41.4200000  34.0809408  40.9719408  40.1910000
  33.3579408  41.5829408  40.3280000  34.6869408  41.1519408  40.9110000
  32.4699408  32.2689408  39.4860000  31.9209408  33.0069408  39.2190000
  31.8819408  31.5139408  39.4670000  33.0199408  46.0899408  41.5960000
  32.9749408  46.1599408  42.5500000  33.1089408  46.9939408  41.2930000
  42.5739408  44.1909408  46.7410000  42.6879408  43.7449408  45.9010000
  43.3929408  44.6689408  46.8720000  45.7109408  42.0629408  58.0250000
  46.5479408  41.6029408  58.0980000  45.9129408  42.9669408  58.2670000
  39.4949408  45.9309408  33.8740000  39.7659408  45.7989408  34.7830000
  39.9059408  46.7569408  33.6190000  38.0449408  48.2839408  47.2700000
  37.8129408  47.5769408  47.8720000  38.2419408  47.8409408  46.4450000
  38.0199408  31.0509408  44.0630000  38.1869408  31.8039408  43.4960000
  38.5849408  31.1939408  44.8240000  42.3299408  53.4389408  34.0320000
  41.5709408  52.9229408  33.7610000  43.0749408  53.0059408  33.6160000
  33.8559408  58.2669408  36.1100000  33.5329408  59.1219408  35.8250000
  34.7399408  58.4389408  36.4320000  32.1229408  52.1309408  47.8600000
  32.8419408  51.8089408  47.3180000  32.3069408  53.0629408  47.9750000
  48.9909408  38.3469408  35.9690000  49.9089408  38.3779408  36.2400000
  48.8449408  37.4349408  35.7200000  35.8029408  46.0779408  34.3120000
  36.5949408  45.6419408  33.9980000  35.6179408  45.6609408  35.1540000
  45.6349408  41.6509408  33.7230000  46.4549408  41.1739408  33.8460000
  45.4639408  42.0589408  34.5730000  43.6209408  45.0579408  41.2560000
  42.8359408  45.3699408  41.7060000  43.5009408  45.3309408  40.3470000
  36.7349408  40.4089408  46.9120000  37.6709408  40.2119408  46.8740000
  36.3309408  39.5979408  47.2210000  39.1019408  49.7299408  52.1000000
  39.8669408  49.3959408  51.6300000  39.3469408  50.6199408  52.3550000
  38.8879408  50.4159408  31.5990000  38.2829408  49.7779408  31.9770000
  38.7719408  51.2019408  32.1330000  43.4439408  30.5639408  35.1250000
  44.2609408  30.5429408  35.6220000  43.7179408  30.5099408  34.2090000
  38.1309408  47.3219408  39.6840000  38.1119408  48.2399408  39.4110000
  37.9969408  47.3509408  40.6310000  41.8609408  38.8709408  30.8180000
  41.4729408  39.7019408  30.5460000  42.8049408  39.0259408  30.7920000
  44.0549408  50.7059408  49.8650000  43.1819408  50.5199408  50.2090000
  44.1139408  50.1809408  49.0660000  38.7819408  44.8269408  40.5120000
  37.8989408  44.6719408  40.8490000  38.7299408  45.6859408  40.0920000
  55.7759408  45.5769408  45.5950000  56.5949408  45.4519408  45.1160000
  55.8309408  44.9639408  46.3280000  44.7319408  35.0299408  36.7360000
  45.2879408  34.2539408  36.6670000  45.2679408  35.6689408  37.2060000
  44.7409408  48.3739408  58.8420000  45.0239408  49.2489408  58.5730000
  45.2609408  48.1829408  59.6220000  44.8019408  45.4929408  46.8610000
  44.9129408  46.3009408  46.3600000  45.6729408  45.3059408  47.2110000
  37.7279408  43.2519408  56.7680000  37.4999408  42.7349408  57.5410000
  38.4259408  43.8349408  57.0650000  48.8059408  48.6449408  59.5420000
  49.1739408  47.7629408  59.4910000  49.4979408  49.2139408  59.2050000
  57.4529408  42.4809408  42.6510000  56.9679408  41.6609408  42.7380000
  58.3159408  42.2169408  42.3320000  49.8039408  40.9529408  38.8190000
  50.7069408  41.2619408  38.7410000  49.2889408  41.5889408  38.3220000
  43.6759408  42.0399408  38.3110000  42.9579408  42.4469408  38.7970000
  43.3909408  41.1369408  38.1740000  34.4319408  29.9699408  39.1520000
  34.9539408  30.3289408  39.8690000  33.7079408  30.5879408  39.0490000
  33.1979408  45.2869408  37.9950000  32.5999408  45.4139408  37.2590000
  32.7259408  44.7069408  38.5910000  43.4919408  40.2479408  45.4210000
  44.1179408  40.9619408  45.5410000  44.0109408  39.5349408  45.0460000
  58.8019408  36.7519408  45.1170000  58.5949408  36.3399408  44.2790000
  57.9779408  37.1509408  45.3980000  36.3509408  42.5299408  50.8020000
  35.7639408  42.6359408  50.0530000  36.8079408  43.3679408  50.8690000
  32.1939408  32.4329408  45.0200000  31.9859408  32.0149408  44.1840000
  32.7589408  33.1699408  44.7850000  50.3539408  31.1919408  44.3940000
  51.2449408  31.0649408  44.0680000  50.3279408  32.1089408  44.6690000
  42.9529408  48.1909408  34.7110000  42.8259408  48.4779408  35.6150000
  43.8859408  48.3269408  34.5450000  41.2079408  43.2309408  39.6310000
  41.4929408  43.1859408  40.5430000  40.4689408  43.8389408  39.6400000
  35.2889408  46.5969408  31.2440000  36.1979408  46.4009408  31.4730000
  35.0949408  46.0109408  30.5130000  35.9609408  31.2959408  40.8390000
  36.7089408  31.8909408  40.8830000  35.2019408  31.8499408  41.0230000
  44.0369408  39.3019408  40.0320000  43.0859408  39.2279408  39.9500000
  44.3769408  38.5189408  39.5980000  43.8409408  45.9929408  49.9150000
  43.3829408  45.6059408  49.1690000  44.1529408  46.8389408  49.5910000
  47.9259408  43.8949408  44.1400000  46.9729408  43.9149408  44.2200000
  48.2449408  44.1439408  45.0080000  47.9639408  34.7779408  30.3340000
  47.0519408  35.0459408  30.4500000  48.1979408  34.3589408  31.1630000
  36.0819408  41.7559408  33.1260000  35.2619408  42.2489408  33.0890000
  36.7199408  42.3779408  33.4750000  50.7849408  41.9599408  47.6010000
  51.3309408  41.2469408  47.2700000  50.9109408  42.6709408  46.9720000
  46.0959408  40.7469408  39.5820000  45.3069408  40.3579408  39.9590000
  46.3329408  40.1619408  38.8630000  41.8799408  41.9409408  33.1400000
  41.5959408  41.9629408  34.0530000  42.2839408  41.0799408  33.0340000
  40.6029408  48.1769408  42.3180000  39.6709408  48.0139408  42.4610000
  40.6839408  49.1309408  42.3230000  46.8019408  50.5669408  45.9690000
  47.5409408  49.9729408  45.8380000  46.7199408  51.0359408  45.1380000
  36.3819408  33.8779408  36.2780000  36.8239408  34.1609408  37.0780000
  36.7769408  34.4079408  35.5850000  47.8219408  40.6709408  54.7140000
  47.0509408  40.2079408  54.3860000  48.5589408  40.2549408  54.2680000
  50.9929408  46.8169408  31.4860000  51.3499408  47.6909408  31.3270000
  50.4049408  46.9299408  32.2320000  57.1529408  43.0869408  46.5300000
  57.5009408  42.5009408  47.2020000  56.4709408  42.5749408  46.0950000
  58.4819408  40.9349408  39.6410000  58.8959408  41.1749408  40.4700000
  58.9019408  41.4979408  38.9910000  44.8989408  56.5689408  38.8670000
  44.8359408  56.8249408  39.7880000  44.8469408  55.6129408  38.8800000
  36.4319408  39.2409408  39.6680000  35.6539408  39.7959408  39.6110000
  36.1929408  38.4429408  39.1960000  47.9739408  40.1959408  34.3400000
  48.5639408  40.9399408  34.4650000  48.2259408  39.5729408  35.0210000
  44.5639408  41.3319408  42.5050000  45.3129408  41.9219408  42.4160000
  44.8419408  40.5249408  42.0710000  35.8949408  49.3489408  40.4970000
  35.2319408  49.5939408  41.1420000  35.4229408  48.8129408  39.8600000
  40.5329408  34.8369408  41.0850000  40.4469408  35.5079408  40.4070000
  41.3799408  35.0149408  41.4930000  38.3729408  53.4639408  43.1860000
  39.1639408  53.9339408  42.9220000  37.6539408  53.9979408  42.8490000
  38.0019408  43.8009408  34.2870000  38.6839408  44.4149408  34.0160000
  37.9259408  43.9279408  35.2330000  38.5919408  50.0079408  41.6570000
  37.6919408  49.6829408  41.6220000  38.5009408  50.9549408  41.7650000
  38.5059408  59.5499408  34.7200000  39.2599408  59.8159408  34.1930000
  38.6619408  59.9459408  35.5770000  34.0379408  57.2559408  39.9530000
  34.9729408  57.0479408  39.9550000  33.9999408  58.1869408  39.7350000
  47.8569408  35.7969408  36.3200000  48.7739408  35.6119408  36.1180000
  47.3679408  35.4069408  35.5960000  54.8209408  37.4299408  38.6100000
  54.9309408  36.7309408  37.9650000  55.4989408  38.0679408  38.3900000
  39.6499408  41.8419408  37.8760000  40.4039408  42.2779408  38.2730000
  39.2779408  41.3139408  38.5820000  47.8409408  41.3329408  51.0730000
  47.5779408  40.4969408  51.4570000  47.0239408  41.8229408  50.9800000
  46.4069408  33.6289408  49.0480000  47.1099408  34.2789408  49.0450000
  46.1969408  33.5069408  49.9740000  41.6449408  38.1269408  53.6070000
  41.9199408  37.4939408  54.2710000  41.9309408  38.9729408  53.9510000
  48.3389408  38.6359408  47.0160000  48.1949408  39.4509408  47.4970000
  49.2549408  38.4159408  47.1850000  37.8239408  39.7049408  31.9020000
  38.6989408  39.3949408  32.1340000  37.3699408  39.7939408  32.7400000
  37.4669408  39.5539408  56.4890000  37.0789408  40.1509408  57.1290000
  37.8689408  40.1279408  55.8380000  43.4879408  38.3599408  47.7820000
  42.5719408  38.4729408  48.0380000  43.7179408  39.1799408  47.3450000
  57.1329408  43.4899408  36.5760000  56.2129408  43.7239408  36.4540000
  57.5309408  44.2739408  36.9540000  35.3919408  39.8369408  51.5440000
  34.4879408  40.0839408  51.7380000  35.8819408  40.6569408  51.5990000
  45.6989408  43.6459408  51.5090000  44.9289408  44.2119408  51.4530000
  45.7449408  43.3939408  52.4310000  35.3759408  35.8509408  34.5400000
  35.9379408  36.5929408  34.3170000  35.1269408  36.0039408  35.4520000
  51.4999408  50.8909408  51.6630000  51.5299408  51.8449408  51.5890000
  51.2169408  50.5929408  50.7990000  46.1989408  42.7839408  54.3270000
  46.9519408  42.3809408  54.7590000  45.5079408  42.1229408  54.3830000
  50.3079408  42.6819408  51.5200000  49.5659408  42.7069408  52.1230000
  50.0339408  43.2229408  50.7790000  53.5869408  41.2759408  33.3410000
  52.6949408  41.6219408  33.3230000  54.1119408  41.9439408  32.9000000
  37.8799408  56.0279408  53.7110000  38.5289408  56.2299408  53.0370000
  37.0729408  55.8609408  53.2240000  48.4169408  44.7709408  50.7260000
  48.8399408  45.1919408  51.4750000  47.5249408  44.5919408  51.0240000
  44.9759408  45.1649408  53.9550000  45.6309408  45.7189408  53.5300000
  45.4869408  44.4979408  54.4130000  50.1269408  47.4139408  47.2570000
  50.8569408  48.0169408  47.1180000  50.2649408  47.0689408  48.1390000
  47.7229408  39.0149408  44.5310000  48.2079408  39.8399408  44.5330000
  47.7629408  38.7109408  45.4380000  47.0589408  34.2909408  33.6940000
  47.3229408  33.4279408  34.0130000  46.3329408  34.1129408  33.0950000
  42.1429408  43.0499408  53.4810000  42.7959408  43.1569408  52.7890000
  41.8279408  43.9369408  53.6530000  39.2999408  34.7489408  46.6790000
  38.4779408  34.7659408  46.1890000  39.0309408  34.7099408  47.5970000
  40.2849408  39.8869408  42.5980000  40.8409408  39.1149408  42.4900000
  40.1829408  39.9779408  43.5460000  41.5199408  40.6549408  54.6330000
  41.7749408  41.4879408  54.2350000  40.7539408  40.3749408  54.1320000
  58.8309408  37.2719408  32.2880000  58.8699408  36.9779408  33.1980000
  59.5399408  36.7969408  31.8530000  42.8319408  36.0959408  55.8560000
  42.2219408  36.7999408  56.0740000  42.2899408  35.4319408  55.4300000
  52.0739408  39.3869408  59.4840000  52.9599408  39.0269408  59.4310000
  51.4999408  38.6319408  59.3590000  47.8369408  35.8009408  48.3520000
  48.7399408  35.6199408  48.0890000  47.7859408  36.7559408  48.3950000
  45.8959408  49.4069408  54.8660000  45.5879408  48.8379408  55.5710000
  46.8499408  49.3899408  54.9430000  42.3099408  47.8379408  48.4750000
  41.5999408  47.7869408  47.8350000  42.9599408  48.4099408  48.0670000
  51.5769408  40.0929408  43.5580000  50.8019408  40.5149408  43.9290000
  51.6999408  40.5189408  42.7100000  33.0429408  42.8729408  55.6090000
  33.5349408  42.7249408  54.8020000  32.7319408  42.0039408  55.8640000
  44.6799408  59.2389408  56.7010000  45.3729408  59.7719408  56.3100000
  44.3379408  59.7769408  57.4150000  35.6739408  53.6199408  30.0820000
  36.0949408  53.8689408  30.9050000  36.3839408  53.2649408  29.5480000
  33.0279408  48.2679408  31.4330000  33.1569408  49.2159408  31.4620000
  33.8729408  47.9189408  31.1520000  35.6639408  38.1749408  48.2520000
  36.2629408  37.8789408  48.9380000  35.1889408  37.3859408  47.9920000
  35.9109408  36.2639408  53.1760000  35.8639408  35.3079408  53.1610000
  35.2579408  36.5469408  52.5370000  33.5549408  42.7819408  33.2750000
  32.7219408  42.4139408  33.5720000  33.4619408  43.7249408  33.4110000
  42.0799408  32.2879408  55.6550000  41.8949408  32.3419408  56.5920000
  41.6749408  33.0719408  55.2840000  33.4729408  39.6029408  57.1470000
  33.7089408  38.7169408  56.8730000  34.0979408  39.8149408  57.8400000
  50.1159408  33.8369408  45.0270000  50.6079408  34.5009408  44.5440000
  49.2639408  33.8059408  44.5920000  39.1499408  59.6889408  52.5040000
  39.9349408  60.2339408  52.5540000  39.1679408  59.3219408  51.6200000
  40.2899408  46.9219408  56.2360000  40.6129408  46.3839408  55.5120000
  40.5349408  47.8159408  55.9980000  35.6959408  36.5609408  57.9650000
  36.2729408  36.7839408  57.2350000  36.2299408  36.7069408  58.7460000
  39.0229408  40.0999408  53.4030000  38.3649408  40.6929408  53.7660000
  38.5369408  39.3039408  53.1870000  32.6359408  39.1879408  42.6550000
  32.1249408  39.8089408  43.1730000  31.9839408  38.6069408  42.2650000
  40.1199408  31.7629408  33.4120000  39.5699408  31.8339408  32.6310000
  40.9739408  32.0939408  33.1340000  45.5569408  55.5499408  56.2860000
  44.8219408  54.9969408  56.0220000  46.0899408  55.6339408  55.4950000
  37.1549408  37.1399408  55.5410000  36.6739408  37.0259408  54.7220000
  37.2739408  38.0859408  55.6200000  44.3109408  40.8199408  55.0000000
  43.4729408  40.6859408  54.5580000  44.6099408  39.9379408  55.2200000
  54.7679408  36.0699408  47.1460000  53.8289408  36.0299408  46.9640000
  55.1819408  35.7409408  46.3480000  35.1569408  41.4689408  45.1180000
  34.3929408  41.0489408  45.5120000  35.9069408  41.0229408  45.5130000
  46.3049408  47.8459408  48.6500000  46.4699408  48.5339408  48.0040000
  46.6669408  47.0539408  48.2540000  41.4229408  31.4139408  52.3640000
  41.7979408  31.2949408  53.2370000  42.1729408  31.6199408  51.8060000
  34.3739408  32.0349408  52.5920000  35.0449408  32.5869408  52.9950000
  33.7539408  32.6539408  52.2080000  37.8019408  46.5439408  37.0640000
  37.6149408  45.6139408  37.1890000  37.8329408  46.9049408  37.9500000
  39.5459408  44.8449408  57.9910000  39.9689408  45.6099408  57.6000000
  39.0599408  45.1949408  58.7380000  31.7749408  30.6259408  58.9360000
  32.5749408  31.0719408  59.2140000  31.1079408  31.3129408  58.9280000
  42.7309408  42.2139408  48.9580000  42.2289408  41.4239408  48.7610000
  42.6519408  42.7509408  48.1690000  33.0389408  57.9559408  58.5700000
  33.2659408  57.7619408  57.6600000  32.9049408  58.9029408  58.5870000
  38.8229408  49.2789408  58.8730000  39.0599408  48.7649408  59.6450000
  38.2279408  49.9509408  59.2050000  40.8119408  34.5099408  54.7060000
  39.9129408  34.5729408  55.0290000  40.7219408  34.4639408  53.7540000
  38.1589408  41.4079408  59.5170000  39.1069408  41.5379408  59.5250000
  37.9899408  40.8219408  60.2550000  37.4109408  38.2469408  52.5390000
  37.0039408  37.3889408  52.6570000  36.8979408  38.6629408  51.8460000
  35.9589408  32.4859408  59.6520000  35.4029408  32.4139408  60.4270000
  35.4749408  32.0279408  58.9650000  58.9339408  29.9049408  57.3680000
  59.3039408  30.6489408  57.8430000  59.4589408  29.8439408  56.5700000
  48.8269408  33.5309408  52.3500000  48.8589408  32.6169408  52.6340000
  49.3369408  33.5479408  51.5400000  43.0339408  44.4019408  33.2410000
  43.4299408  44.6769408  32.4150000  42.6019408  43.5729408  33.0360000
  44.6579408  31.6439408  54.3280000  45.2989408  31.5509408  55.0330000
  43.8909408  32.0299408  54.7510000  39.2199408  40.8319408  50.8010000
  38.2959408  40.9889408  50.6070000  39.2279408  40.5439408  51.7140000
  38.1889408  47.1529408  53.5900000  39.0689408  47.0679408  53.9560000
  37.9749408  48.0809408  53.6910000  37.2109408  38.0059408  35.3860000
  36.6419408  38.7579408  35.5510000  37.9689408  38.1489408  35.9520000
  60.1159408  38.1649408  41.4220000  60.1929408  37.2509408  41.1470000
  59.2939408  38.4639408  41.0340000  51.0649408  39.6399408  32.0140000
  51.5329408  39.0169408  32.5690000  51.5449408  39.6309408  31.1850000
  34.8949408  48.8529408  36.4910000  35.2919408  49.6979408  36.7040000
  35.4089408  48.5259408  35.7530000  30.8779408  59.1329408  31.2170000
  31.1779408  59.6449408  30.4660000  31.0379408  58.2229408  30.9670000
  36.9089408  34.5699408  45.4710000  36.4269408  35.1219408  44.8560000
  36.2819408  34.3849408  46.1700000  45.2509408  38.2789408  55.3330000
  44.5369408  37.6459408  55.4040000  45.7219408  38.2039408  56.1630000
  46.1519408  46.8349408  36.9130000  45.4469408  46.5409408  36.3350000
  45.7099408  47.0769408  37.7270000  31.6169408  39.6609408  55.2060000
  32.3259408  39.5369408  55.8370000  32.0529408  39.9679408  54.4120000
  45.4429408  30.1609408  43.2290000  46.1079408  29.5109408  43.4580000
  45.5879408  30.8799408  43.8430000  54.0269408  49.3799408  51.4100000
  54.2849408  48.4959408  51.6720000  53.1719408  49.5119408  51.8210000
  44.3959408  48.1949408  40.7400000  44.3709408  48.1429408  41.6950000
  44.2869408  47.2889408  40.4480000  35.1149408  34.0059408  56.8730000
  34.1869408  34.1409408  56.6820000  35.3489408  34.7299408  57.4530000
  34.5679408  42.7609408  53.3450000  34.5269408  43.7069408  53.4870000
  34.8839408  42.6679408  52.4460000  51.5419408  32.2789408  54.3060000
  51.1949408  32.1159408  53.4290000  51.4429408  31.4439408  54.7630000
  44.6329408  53.1429408  40.1660000  44.8209408  53.6079408  39.3500000
  44.7559408  52.2189408  39.9490000  45.3159408  42.0549408  46.3340000
  44.9349408  42.8129408  46.7780000  46.1729408  41.9419408  46.7450000
  52.2929408  47.8109408  53.8080000  52.1829408  47.0259408  54.3450000
  52.7159408  48.4419408  54.3890000  39.7159408  47.2639408  30.6440000
  40.4809408  46.8889408  30.2080000  40.0779408  47.7609408  31.3780000
  39.6429408  57.8269408  54.9720000  39.4569408  57.5769408  54.0670000
  40.3899408  58.4219408  54.9080000  37.2109408  41.8149408  54.3940000
  36.3699408  42.1359408  54.0660000  37.5599408  42.5409408  54.9100000
  30.1669408  38.8079408  50.3710000  29.8829408  38.0049408  50.8070000
  29.9809408  39.5029408  51.0020000  41.3649408  39.9299408  48.7550000
  40.7509408  39.2719408  48.4300000  41.2129408  39.9549408  49.7000000
  44.3869408  50.9349408  31.0510000  43.5169408  51.2199408  30.7720000
  44.8489408  50.7409408  30.2360000  40.7769408  39.9669408  45.3550000
  41.7099408  40.1599408  45.2610000  40.7469408  39.1889408  45.9110000
  33.5569408  37.1909408  56.0440000  34.3569408  36.6719408  56.1280000
  33.4109408  37.2549408  55.1000000  49.8279408  45.7489408  43.0870000
  50.5869408  45.7009408  43.6680000  49.2939408  44.9909408  43.3260000
  30.9909408  44.1799408  59.6390000  31.5389408  44.9439408  59.4570000
  30.9489408  44.1369408  60.5940000  41.3459408  43.1939408  58.8840000
  40.7059408  43.7409408  58.4290000  41.9039408  42.8469408  58.1880000
  58.4329408  31.3169408  47.7720000  58.3759408  30.3929408  48.0160000
  58.3789408  31.7879408  48.6040000  46.9629408  46.6139408  52.6300000
  46.8069408  47.5369408  52.8310000  47.8629408  46.5879408  52.3060000
  56.9299408  41.9079408  31.8610000  56.9209408  42.4829408  32.6270000
  57.6339408  41.2839408  32.0360000  45.8339408  33.3109408  31.4930000
  46.3929408  32.5349408  31.4550000  45.4889408  33.4019408  30.6050000
  30.8749408  33.4179408  53.9600000  30.5559408  32.5409408  53.7490000
  31.6379408  33.5389408  53.3940000  43.8929408  49.7199408  47.2500000
  43.8199408  50.5249408  46.7370000  44.7049408  49.3139408  46.9450000
  40.5189408  37.1779408  45.9270000  40.5439408  36.3239408  46.3590000
  40.1409408  36.9999408  45.0660000  45.9109408  57.6449408  50.9300000
  45.4609408  56.9469408  50.4540000  45.2979408  57.8989408  51.6190000
  45.5579408  34.1889408  56.1150000  44.8629408  34.8469408  56.1260000
  45.7909408  34.1009408  55.1910000  47.6369408  60.0739408  52.6510000
  47.4279408  59.3739408  52.0330000  47.3079408  59.7569408  53.4920000
  39.3779408  38.0839408  58.2570000  38.8019408  38.1769408  57.4980000
  40.1869408  38.5259408  58.0000000  37.9469408  37.0969408  49.7360000
  37.9239408  36.1409408  49.7090000  38.7869408  37.3059408  50.1460000
  46.8989408  59.9439408  35.6780000  46.7499408  59.2089408  36.2740000
  46.6159408  59.6199408  34.8230000  39.8299408  57.2289408  35.4010000
  38.9329408  57.4469408  35.1470000  40.3679408  57.5429408  34.6740000
  48.4289408  59.3959408  58.3290000  47.9429408  58.5779408  58.2260000
  48.7299408  59.3839408  59.2380000  31.1219408  36.0539408  39.6410000
  30.6489408  36.3209408  38.8530000  31.9209408  36.5809408  39.6320000
  41.1519408  52.9069408  50.7830000  41.1849408  51.9589408  50.9060000
  40.5209408  53.0349408  50.0740000  41.0869408  55.7069408  37.3250000
  40.8939408  56.1889408  38.1280000  40.7599408  56.2699408  36.6230000
  32.6749408  48.7829408  40.9760000  33.1839408  49.3299408  41.5740000
  33.0549408  48.9529408  40.1140000  43.9669408  45.5319408  35.7910000
  44.1179408  44.5939408  35.6770000  43.3829408  45.7699408  35.0710000
  32.1679408  34.6769408  42.0900000  31.6919408  35.0179408  41.3330000
  31.8439408  35.1909408  42.8290000  39.7219408  58.0699408  38.6160000
  39.4219408  58.0619408  37.7080000  39.1469408  58.6979408  39.0530000
  41.7279408  50.3879408  51.2710000  41.6209408  49.5149408  50.8940000
  42.3419408  50.2629408  51.9960000  58.0529408  55.8899408  42.2050000
  58.2489408  56.7309408  42.6180000  57.0989408  55.8779408  42.1250000
  43.8599408  36.7389408  32.4700000  43.0679408  37.2019408  32.1940000
  43.5509408  36.0939408  33.1060000  34.9999408  59.5199408  48.2440000
  35.1339408  59.6689408  49.1800000  34.6149408  60.3359408  47.9240000
  40.5059408  49.8669408  36.1100000  39.8559408  49.5139408  35.5030000
  39.9949408  50.3779408  36.7380000  43.0909408  35.1259408  34.6640000
  43.6829408  35.1169408  35.4160000  42.3979408  34.5079408  34.8970000
  33.3269408  54.6049408  49.3680000  34.2059408  54.2289408  49.3230000
  33.4169408  55.4729408  48.9750000  30.0379408  51.4779408  34.6990000
  30.9309408  51.1549408  34.5830000  29.4899408  50.8369408  34.2450000
  45.7609408  55.8819408  34.7460000  45.6409408  55.0999408  34.2060000
  44.9199408  55.9989408  35.1890000  44.2179408  50.3289408  43.1910000
  44.4609408  51.2159408  42.9250000  45.0449408  49.9189408  43.4450000
  47.6079408  51.4719408  51.4500000  47.1129408  52.1989408  51.8280000
  47.2049408  50.6879408  51.8230000  42.8429408  54.9729408  51.9030000
  42.4879408  54.2539408  51.3800000  43.3269408  55.5089408  51.2750000
  34.6779408  52.4899408  46.5850000  35.2769408  53.2359408  46.6160000
  35.2109408  51.7439408  46.8610000  35.7979408  51.3969408  36.7650000
  36.4539408  51.7799408  37.3470000  34.9819408  51.4349408  37.2640000
  60.0089408  51.9419408  59.8560000  59.3139408  52.0199408  60.5100000
  59.9439408  51.0409408  59.5420000  47.4849408  57.6719408  37.7400000
  46.6389408  57.2889408  37.9700000  47.8719408  57.0489408  37.1250000
  32.3099408  48.7869408  35.5240000  31.6629408  48.6259408  36.2120000
  33.1549408  48.6519408  35.9530000  44.3059408  58.7819408  37.3720000
  44.7559408  58.1469408  37.9280000  43.9669408  58.2639408  36.6420000
  54.3189408  54.7159408  44.1060000  54.8969408  53.9829408  43.8980000
  54.5489408  55.3919408  43.4680000  36.4959408  48.9039408  32.3800000
  35.9039408  49.5189408  31.9470000  35.9969408  48.0889408  32.4350000
  35.8519408  57.3879408  59.9390000  35.2559408  57.5509408  59.2070000
  35.3619408  56.8089408  60.5230000  46.4369408  49.0669408  51.2430000
  46.5039408  48.3559408  50.6060000  45.6939408  49.5899408  50.9420000
  37.2649408  53.0889408  33.3920000  37.5729408  53.8519408  32.9040000
  37.6459408  53.1919408  34.2640000  40.3759408  53.4779408  47.1180000
  39.6279408  53.2069408  47.6500000  40.5139408  52.7509408  46.5100000
  45.4449408  55.1009408  44.0140000  46.2459408  55.2109408  43.5020000
  45.0809408  54.2679408  43.7140000  39.1669408  35.4379408  35.7480000
  38.8509408  35.6709408  34.8750000  39.4189408  34.5179408  35.6750000
  34.2729408  50.1469408  42.5690000  33.8439408  50.9559408  42.8460000
  35.0339408  50.0699408  43.1450000  33.2469408  45.4839408  33.2100000
  33.6359408  46.1419408  32.6340000  33.7999408  45.4919408  33.9910000
  34.1789408  47.7809408  38.9290000  34.2309408  48.1619408  38.0530000
  33.5919408  47.0319408  38.8310000  41.1639408  59.3629408  44.0990000
  41.9599408  59.0219408  44.5070000  40.8289408  60.0059408  44.7250000
  41.2709408  59.4239408  30.7540000  41.1439408  59.1009408  29.8620000
  40.7259408  60.2099408  30.8040000  40.1639408  44.3359408  47.9330000
  39.7059408  43.4989408  47.8530000  40.9369408  44.2409408  47.3770000
  36.7049408  54.8669408  37.0240000  37.3139408  54.3839408  36.4660000
  36.0519408  55.2189408  36.4190000  30.7809408  47.7779408  33.0700000
  31.3749408  47.8329408  33.8190000  31.3059408  48.0689408  32.3250000
  36.9129408  56.0559408  43.0170000  36.7609408  56.9919408  43.1450000
  37.8609408  55.9539408  43.1010000  39.9689408  55.5049408  41.5150000
  40.0609408  56.2039408  42.1630000  39.5309408  55.9229408  40.7730000
  42.8559408  32.0519408  39.6080000  43.6339408  31.5559408  39.8640000
  42.6389408  32.5739408  40.3800000  40.9059408  52.2719408  31.9450000
  40.8709408  51.3879408  31.5790000  40.4339408  52.8129408  31.3120000
  30.6149408  44.7429408  32.4330000  29.9859408  45.4539408  32.5520000
  31.4659408  45.1429408  32.6100000  45.8529408  53.8829408  37.9390000
  45.9139408  53.7729408  36.9900000  46.7569408  54.0099408  38.2250000
  34.3649408  52.5619408  40.9050000  33.8259408  53.0119408  41.5560000
  35.0559408  53.1889408  40.6910000  41.6299408  53.2589408  41.2250000
  41.9139408  53.2529408  40.3110000  40.9499408  53.9319408  41.2610000
  33.3079408  52.3489408  44.1740000  33.6449408  53.1049408  43.6930000
  33.8179408  52.3319408  44.9840000  50.0859408  33.0319408  31.4180000
  50.4329408  32.3479408  30.8450000  49.2249408  32.7079408  31.6830000
  58.1769408  32.4219408  50.1510000  57.3749408  32.2089408  50.6290000
  58.4289408  33.2859408  50.4760000  49.2209408  58.9019408  39.3070000
  48.6819408  59.2899408  39.9960000  48.5979408  58.6619408  38.6210000
  30.9919408  29.9949408  55.7370000  31.7769408  30.0659408  55.1940000
  31.2419408  30.3889408  56.5730000  30.7819408  46.6869408  45.9170000
  30.1779408  46.2529408  46.5200000  30.3069408  47.4619408  45.6180000
  36.7389408  54.1779408  39.9850000  36.8389408  55.0859408  40.2700000
  36.8689408  54.2079408  39.0370000  40.4329408  31.4439408  45.7220000
  40.5989408  31.4719408  46.6650000  40.7079408  32.3039408  45.4050000
  41.3089408  49.2199408  55.3400000  42.0399408  49.3309408  54.7320000
  41.4799408  49.8519408  56.0380000  33.3309408  49.3729408  48.2010000
  32.4419408  49.5659408  48.5000000  33.8949408  49.6769408  48.9110000
  56.3379408  38.5209408  44.7070000  55.9319408  39.3879408  44.7270000
  55.5999408  37.9109408  44.7000000  33.1059408  51.9459408  38.1800000
  33.4189408  52.7029408  38.6760000  32.1519408  52.0229408  38.2010000
  45.4369408  53.2539408  50.0090000  46.0059408  53.1119408  49.2530000
  45.0009408  52.4129408  50.1430000  37.0619408  51.4499408  39.2770000
  37.2629408  52.2119408  39.8210000  36.5489408  50.8769408  39.8470000
  42.4839408  56.0199408  59.2340000  42.1589408  55.9759408  60.1330000
  41.7009408  56.1619408  58.7020000  42.0659408  58.8869408  39.7040000
  41.2279408  58.5389408  39.3980000  42.5209408  59.1529408  38.9050000
  41.2699408  56.0949408  46.5260000  41.8939408  56.0249408  45.8040000
  41.2699408  55.2259408  46.9290000  40.8659408  48.4719408  32.7640000
  40.6719408  49.4039408  32.8690000  41.5619408  48.2989408  33.3990000
  43.6439408  30.4429408  31.8470000  42.8629408  30.2199408  31.3410000
  43.6489408  31.3999408  31.8730000  33.1739408  30.5829408  34.5740000
  34.1289408  30.6499408  34.5680000  32.8779408  31.4079408  34.9580000
  39.4209408  51.4549408  37.9740000  38.8169408  51.4819408  38.7160000
  40.2109408  51.8929408  38.2920000  58.8549408  53.9129408  40.4620000
  58.1329408  53.2899408  40.3720000  58.5459408  54.5469408  41.1090000
  39.8059408  45.8759408  51.7940000  38.8959408  46.1509408  51.9020000
  39.7489408  44.9669408  51.5000000  37.9939408  51.3219408  44.6600000
  38.8919408  51.3319408  44.9910000  37.9779408  52.0019408  43.9870000
  55.4639408  55.1709408  38.5830000  54.5769408  55.4189408  38.3240000
  55.9009408  54.9499408  37.7600000  54.4759408  50.8279408  49.0240000
  55.3199408  51.0919408  48.6570000  54.7019408  50.2359408  49.7420000
  38.2409408  49.7249408  55.2630000  38.0479408  49.1849408  56.0300000
  39.1959408  49.7239408  55.2030000  42.9509408  31.3049408  42.5350000
  43.5739408  30.6049408  42.7320000  42.1069408  30.9639408  42.8300000
  59.8429408  56.8959408  38.9490000  59.2369408  56.1979408  38.6960000
  60.4319408  56.4839408  39.5810000  43.2739408  56.0209408  35.5640000
  43.0779408  55.8549408  36.4860000  42.5129408  55.6839408  35.0920000
  43.9679408  53.1959408  42.7510000  43.0609408  53.1179408  42.4530000
  44.4749408  53.3119408  41.9480000  37.9659408  53.2009408  54.6000000
  38.6309408  52.7009408  54.1270000  37.9549408  54.0549408  54.1660000
  58.8189408  58.9629408  49.5480000  59.3499408  58.7979408  50.3270000
  57.9169408  58.8389408  49.8420000  37.1999408  32.1849408  49.7970000
  37.7519408  31.4189408  49.6400000  36.4489408  31.8439408  50.2840000
  46.6659408  42.2829408  31.1970000  46.1439408  43.0379408  30.9240000
  46.2319408  41.9649408  31.9890000  41.4439408  45.8639408  53.9440000
  42.0879408  46.3889408  53.4680000  40.7859408  45.6379408  53.2870000
  44.5009408  42.8519408  35.8720000  44.3729408  42.6739408  36.8040000
  43.6179408  42.8409408  35.5020000  40.8959408  49.7499408  39.9370000
  40.1039408  49.8069408  40.4710000  41.6099408  49.9329408  40.5480000
  49.0259408  44.6979408  35.6060000  49.1789408  45.5409408  36.0320000
  48.8219408  44.0999408  36.3250000  36.7689408  58.4729408  44.2330000
  37.3599408  59.2059408  44.4070000  35.9639408  58.6979408  44.6990000
  39.7699408  52.6009408  56.6800000  39.2829408  52.6389408  55.8560000
  39.7329408  53.4939408  57.0220000  57.3529408  30.3099408  42.8330000
  57.5099408  29.6729408  43.5300000  57.9369408  31.0399408  43.0390000
  42.1129408  48.3489408  37.7370000  41.7449408  48.5769408  38.5910000
  41.5649408  48.8179408  37.1070000  54.6629408  49.5749408  42.4850000
  54.9049408  48.8659408  43.0800000  54.1909408  49.1409408  41.7740000
  31.4539408  59.7109408  45.8930000  31.4329408  60.6619408  46.0040000
  32.2849408  59.5399408  45.4500000  36.8329408  50.5419408  47.8900000
  37.4509408  49.8449408  47.6710000  36.2749408  50.1639408  48.5700000
  55.2199408  44.8659408  31.3530000  55.3179408  44.0859408  30.8060000
  54.4369408  45.3009408  31.0120000  48.8679408  57.6099408  33.3490000
  49.7269408  57.3279408  33.6620000  48.2529408  57.2769408  34.0020000
  38.3579408  34.1779408  31.8600000  38.4489408  34.8209408  32.5630000
  37.5369408  33.7239408  32.0540000  41.2019408  58.7629408  33.4690000
  41.2119408  59.5939408  33.9450000  41.6049408  58.9659408  32.6240000
  36.1329408  53.5059408  50.1000000  36.3269408  53.2889408  49.1880000
  36.9599408  53.8419408  50.4480000  40.2109408  58.4339408  41.9620000
  41.0079408  58.2959408  41.4500000  40.5229408  58.6039408  42.8510000
  47.3879408  52.3639408  57.4260000  47.6389408  52.8729408  58.1970000
  48.1209408  52.4709408  56.8190000  31.6809408  58.4499408  37.5820000
  32.3499408  57.9409408  37.1260000  30.8959408  57.9039408  37.5440000
  55.9239408  52.7609408  43.2040000  55.7279408  52.7439408  42.2670000
  56.0819408  51.8459408  43.4340000  49.3099408  56.6769408  44.0320000
  49.6109408  56.8749408  44.9190000  49.3619408  55.7229408  43.9680000
  33.3539408  54.7089408  39.0660000  33.7559408  55.5449408  39.3010000
  32.5179408  54.9489408  38.6650000  31.4129408  56.7549408  30.3960000
  32.1889408  57.0679408  29.9310000  31.2349408  55.8959408  30.0140000
  59.6089408  57.8679408  45.3230000  60.1049408  57.1339408  44.9590000
  60.2649408  58.5469408  45.4810000  52.3659408  44.6299408  38.6880000
  51.7399408  44.6659408  39.4110000  53.1379408  45.0919408  39.0160000
  31.5119408  49.0599408  43.6060000  30.8219408  49.4449408  43.0660000
  32.0049408  48.5029408  43.0030000  33.9449408  56.8669408  48.1460000
  33.7629408  56.8199408  47.2080000  34.4529408  57.6719408  48.2510000
  43.2799408  52.0519408  45.6120000  42.3279408  51.9589408  45.6370000
  43.5199408  51.8259408  44.7140000  42.9559408  51.3659408  36.3640000
  43.4859408  51.8059408  35.6990000  42.4029408  50.7609408  35.8690000
  33.4409408  36.1809408  31.9050000  34.0029408  36.8479408  31.5100000
  33.9759408  35.7989408  32.6010000  47.0119408  53.5979408  30.0990000
  47.4669408  54.3679408  30.4400000  46.1409408  53.9179408  29.8630000
  37.1949408  52.4749408  58.1130000  36.6079408  52.3649408  57.3650000
  38.0739408  52.3999408  57.7400000  48.2589408  42.5979408  37.4360000
  47.7069408  41.9699408  36.9700000  47.6589408  43.0499408  38.0290000
  30.1369408  33.5589408  35.8370000  29.9919408  32.6449408  35.5950000
  30.0729408  33.5669408  36.7920000  45.3399408  50.8529408  58.1340000
  44.7079408  51.5289408  57.8920000  46.1799408  51.1839408  57.8140000
  49.9039408  30.2909408  56.3150000  49.3069408  30.0529408  57.0240000
  50.2959408  31.1169408  56.5980000  56.3759408  53.1479408  52.1470000
  55.9069408  53.8409408  51.6830000  57.2419408  53.1299408  51.7400000
  38.6959408  34.9359408  56.2190000  38.5659408  34.8349408  57.1620000
  37.9669408  35.4869408  55.9330000  35.0549408  30.9999408  57.6170000
  35.2369408  31.8089408  57.1400000  34.9239408  30.3429408  56.9330000
  42.6159408  52.0489408  54.5270000  42.7129408  51.7699408  55.4380000
  43.1399408  51.4229408  54.0270000  34.7479408  56.4299408  32.0810000
  34.8309408  55.7089408  32.7050000  33.9279408  56.8609408  32.3190000
  39.2759408  56.4629408  44.7030000  39.7309408  56.2569408  45.5190000
  39.1089408  57.4049408  44.7520000  53.3719408  59.3539408  46.9710000
  53.3079408  58.3989408  46.9860000  52.9949408  59.6059408  46.1290000
  46.2559408  53.4489408  52.4580000  45.9049408  53.5529408  51.5740000
  45.4959408  53.5559408  53.0320000  36.9949408  45.9949408  50.7340000
  36.4209408  45.7369408  51.4560000  36.9939408  46.9519408  50.7580000
  46.4109408  57.9309408  46.0400000  46.7929408  58.4529408  46.7440000
  46.9819408  58.0879408  45.2870000  44.1419408  54.1589408  54.0840000
  43.6309408  53.3779408  54.2940000  43.5819408  54.6599408  53.4910000
  43.5379408  46.9969408  52.3460000  44.1009408  46.3869408  52.8230000
  43.4289408  46.5979408  51.4830000  43.4829408  49.4799408  53.5240000
  43.6019408  48.6709408  53.0260000  44.1959408  49.4769408  54.1620000
  35.5179408  50.8639408  30.6340000  34.6129408  50.9029408  30.3240000
  35.8689408  51.7369408  30.4600000  33.9199408  53.7329408  57.9040000
  33.7749408  52.7969408  57.7640000  34.6069408  53.7729408  58.5690000
  53.3409408  55.3679408  56.2690000  53.8739408  55.7849408  55.5910000
  52.6439408  55.9989408  56.4470000  51.0999408  57.1969408  56.2780000
  50.7519408  57.3389408  55.3980000  51.3499408  58.0699408  56.5810000
  44.6979408  55.7839408  49.6430000  44.8279408  55.7939408  48.6940000
  44.6369408  54.8559408  49.8670000  41.6579408  59.4879408  55.1230000
  41.5199408  60.2759408  55.6490000  42.5939408  59.3049408  55.2060000
  35.6269408  55.5319408  52.0670000  36.1349408  55.9269408  51.3580000
  35.2669408  54.7309408  51.6870000  38.4599408  32.5539408  54.9290000
  38.0919408  31.8119408  55.4080000  38.4689408  33.2689408  55.5650000
  33.5699408  50.9729408  57.9310000  32.6959408  50.8599408  57.5580000
  34.1639408  50.6609408  57.2500000  54.5209408  47.0009408  52.3890000
  55.1209408  46.3069408  52.6620000  53.6929408  46.7869408  52.8180000
  41.6979408  50.0789408  59.7730000  40.8099408  49.8989408  59.4640000
  42.0089408  49.2409408  60.1130000  40.6369408  51.0749408  45.7480000
  41.0509408  50.3259408  46.1760000  40.8889408  50.9959408  44.8280000
  37.8009408  47.6069408  56.9660000  37.9509408  48.0929408  57.7770000
  38.6709408  47.3129408  56.6970000  44.6939408  57.6009408  59.4540000
  43.7959408  57.3609408  59.6810000  44.6029408  58.1929408  58.7070000
  44.6019408  58.8039408  53.5100000  45.1489408  58.3629408  54.1610000
  44.6489408  59.7299408  53.7450000  38.0119408  55.6129408  59.1090000
  37.3469408  55.9979408  59.6800000  37.5689408  55.4959408  58.2690000
  47.2359408  55.8399408  54.2300000  47.9919408  55.7569408  53.6490000
  46.6439408  55.1399408  53.9550000  46.3829408  55.0279408  46.5230000
  45.9809408  54.9789408  45.6560000  46.6939408  55.9299408  46.5930000
  29.8979408  55.6919408  52.9550000  29.7849408  54.8959408  53.4740000
  30.8379408  55.7319408  52.7780000  38.7329408  55.2859408  32.7840000
  39.4529408  55.3559408  32.1580000  38.2929408  56.1349408  32.7390000
  56.7709408  33.6649408  52.7270000  56.7729408  32.8369408  53.2070000
  57.3549408  34.2339408  53.2270000  35.4859408  47.0279408  55.4590000
  35.3769408  46.1209408  55.7470000  36.3439408  47.2849408  55.7970000
  39.9189408  33.5539408  51.8240000  39.1149408  33.4609408  52.3350000
  40.5089408  32.8899408  52.1800000  41.3379408  58.9519408  57.8980000
  40.3879408  58.9459408  57.7800000  41.6909408  58.7969408  57.0220000
  38.4839408  42.6569408  42.7750000  38.7579408  43.2109408  42.0450000
  39.2489408  42.1129408  42.9640000  34.8689408  52.0059408  34.4930000
  35.4839408  52.3369408  33.8380000  35.3879408  51.9349408  35.2950000
  31.1839408  53.8679408  32.2820000  31.7039408  53.3719408  31.6500000
  31.6219408  53.7219408  33.1200000  31.2759408  50.9209408  52.3260000
  31.5259408  50.2529408  51.6880000  31.9619408  51.5849408  52.2600000
  37.4129408  56.2019408  50.0570000  37.4249408  56.6489408  49.2110000
  38.2419408  56.4469408  50.4690000  40.8449408  32.1909408  58.1290000
  39.9649408  31.9919408  57.8090000  40.7209408  32.4099408  59.0520000
  42.1609408  51.0939408  57.1720000  41.3539408  51.5889408  57.0280000
  42.4389408  51.3399408  58.0540000  51.6459408  55.8579408  49.2480000
  51.8839408  55.4889408  48.3980000  51.1379408  55.1669408  49.6750000
  31.9099408  56.0429408  56.4380000  31.0299408  56.3809408  56.2760000
  31.8099408  55.4669408  57.1960000  56.5009408  53.4099408  33.8900000
  57.2679408  53.2959408  33.3290000  56.1529408  54.2679408  33.6490000
  42.1069408  58.3369408  52.1520000  42.8629408  58.3479408  52.7390000
  41.9139408  59.2609408  51.9920000  36.9049408  59.6589408  54.4020000
  37.4049408  59.1249408  55.0190000  37.5369408  59.8999408  53.7250000
  45.8789408  32.1039408  51.6990000  45.5149408  31.9559408  52.5720000
  46.7829408  31.7959408  51.7610000  38.8949408  51.6709408  49.8570000
  38.2309408  51.5909408  49.1720000  38.9859408  50.7849408  50.2080000
  49.3409408  49.3989408  50.3370000  49.0289408  49.1119408  49.4790000
  48.5439408  49.5879408  50.8320000  44.5349408  33.3569408  58.7370000
  44.1719408  32.4879408  58.5610000  45.0539408  33.5609408  57.9590000
  47.1019408  45.7249408  55.9070000  47.7749408  46.4049408  55.8650000
  46.2939408  46.1989408  56.1020000  43.0649408  31.5539408  50.0000000
  43.9649408  31.6039408  50.3230000  42.9399408  30.6309408  49.7800000
  38.2529408  31.2669408  58.1430000  37.5959408  31.4079408  58.8250000
  38.1889408  30.3329408  57.9390000  40.1359408  52.0139408  53.1660000
  40.2959408  52.4989408  52.3560000  40.9959408  51.9489408  53.5810000
  48.4869408  38.0279408  31.6070000  49.1999408  38.3819408  32.1380000
  48.0509408  38.7999408  31.2450000  45.1319408  47.2609408  56.3960000
  45.2409408  47.6919408  57.2440000  44.5449408  46.5269408  56.5740000
  37.2789408  56.4109408  56.2950000  36.3539408  56.2849408  56.0820000
  37.7199408  56.4259408  55.4460000  44.4529408  50.9099408  33.7780000
  44.3679408  50.7669408  32.8350000  45.0229408  50.2019408  34.0770000
  37.1399408  57.5469408  47.6840000  36.8289408  57.2759408  46.8200000
  36.5409408  58.2459408  47.9460000  55.0939408  33.0129408  55.4040000
  54.7599408  32.6939408  54.5660000  55.6369408  32.2969408  55.7340000
  45.7979408  58.7229408  33.2530000  45.6619408  57.7969408  33.0530000
  45.1299408  59.1799408  32.7420000  39.0859408  31.1759408  31.1750000
  38.4019408  30.5059408  31.1510000  38.6729408  31.9539408  30.8020000
  38.0329408  59.1679408  40.5370000  38.6119408  58.8459408  41.2270000
  37.5109408  59.8489408  40.9610000  42.8329408  46.8609408  43.8650000
  42.4649408  45.9809408  43.9370000  42.1939408  47.3459408  43.3420000
  38.4229408  58.5869408  57.7970000  38.0969408  58.0029408  57.1120000
  38.0209408  58.2599408  58.6020000  43.1219408  45.2349408  56.3590000
  42.9999408  44.2859408  56.3360000  43.2029408  45.4879408  55.4390000
  35.5019408  30.1759408  50.8970000  35.1519408  30.8029408  51.5300000
  35.3639408  29.3209408  51.3060000  44.6709408  37.7959408  35.3550000
  45.3629408  37.6749408  34.7050000  44.3999408  36.9069408  35.5840000
  42.2429408  36.3459408  37.8770000  43.0639408  35.9189408  37.6340000
  41.5769408  35.9019408  37.3520000  40.7739408  36.2109408  59.9660000
  41.1209408  36.8889408  60.5450000  40.1539408  36.6719408  59.4000000
  54.9609408  45.1169408  36.4150000  54.0719408  45.3439408  36.1410000
  55.4919408  45.8699408  36.1570000  59.9389408  42.9329408  50.1570000
  59.2409408  43.5489408  49.9330000  59.5489408  42.0699408  50.0180000
  53.4369408  38.0999408  44.6000000  53.0629408  38.4679408  43.7990000
  53.0709408  37.2169408  44.6520000  57.4789408  33.9939408  40.6530000
  57.3369408  34.2939408  39.7560000  57.7139408  33.0699408  40.5640000
  53.8419408  37.9109408  41.1330000  53.2649408  38.4849408  40.6300000
  54.5029408  37.6239408  40.5030000  54.1399408  31.3499408  40.9420000
  53.2239408  31.4689408  41.1920000  54.1099408  30.7419408  40.2040000
  52.8249408  51.8459408  59.9020000  53.1099408  51.1609408  60.5080000
  53.3979408  51.7459408  59.1420000  30.0609408  36.7279408  47.5830000
  30.7789408  37.3319408  47.7720000  29.7179408  37.0209408  46.7390000
  49.3879408  42.0239408  31.7080000  48.4449408  42.1189408  31.5730000
  49.5609408  41.0969408  31.5410000  48.6229408  34.8899408  42.5080000
  49.1929408  34.4829408  41.8550000  48.9969408  35.7609408  42.6440000
  58.2209408  53.3229408  44.8680000  57.5639408  53.4529408  44.1850000
  59.0359408  53.1649408  44.3900000  57.7609408  32.7849408  33.9490000
  58.2159408  32.0179408  33.6010000  57.0409408  32.9349408  33.3370000
  45.8699408  37.0169408  30.6600000  45.2029408  36.8519408  31.3270000
  46.4569408  37.6569408  31.0610000  49.5339408  47.2399408  56.6460000
  50.2919408  46.8729408  56.1910000  49.5379408  46.8119408  57.5020000
  55.9399408  35.4359408  44.7680000  56.1589408  35.8389408  43.9280000
  55.7629408  34.5199408  44.5560000  55.4509408  36.9699408  35.4990000
  54.8859408  36.2069408  35.3780000  55.7639408  37.1789408  34.6180000
  30.4629408  52.8909408  43.2580000  30.2129408  51.9829408  43.0880000
  31.3599408  52.8359408  43.5870000  44.7979408  41.2589408  50.4950000
  44.1209408  41.7319408  50.0110000  45.3779408  41.9449408  50.8280000
  48.4659408  53.8039408  39.1880000  48.8379408  54.6159408  38.8460000
  48.9149408  53.1109408  38.7040000  46.7079408  37.0059408  33.8860000
  47.1969408  37.5149408  33.2390000  46.7849408  36.0999408  33.5860000
  35.6159408  33.9159408  47.9620000  36.1299408  33.4149408  48.5940000
  35.1099408  33.2559408  47.4870000  55.2969408  35.6169408  49.7390000
  56.1719408  35.2819408  49.5430000  54.9219408  35.8239408  48.8830000
  40.5079408  37.1349408  50.9140000  41.3479408  36.7929408  50.6060000
  40.6289408  37.2549408  51.8560000  35.4309408  38.9249408  43.3460000
  34.5449408  38.8439408  43.6980000  35.4069408  39.7229408  42.8170000
  59.5329408  30.6999408  33.3760000  60.1959408  30.7629408  32.6890000
  59.1429408  29.8339408  33.2540000  49.1209408  41.3209408  43.8360000
  48.7309408  41.3989408  42.9650000  48.7629408  42.0599408  44.3270000
  53.4509408  46.6139408  47.9200000  53.0099408  47.2459408  47.3520000
  52.8429408  46.4799408  48.6470000  31.2429408  55.3819408  41.0890000
  31.8839408  54.7989408  40.6820000  30.4409408  54.8619408  41.1370000
  30.5589408  33.4369408  32.1060000  30.9039408  33.9419408  31.3700000
  29.6199408  33.3699408  31.9320000  55.4529408  53.0009408  36.3470000
  56.1639408  52.5919408  36.8410000  55.8259408  53.1649408  35.4810000
  49.8289408  42.1619408  34.8400000  50.2879408  42.3219408  35.6640000
  49.5549408  43.0299408  34.5450000  48.0169408  37.0069408  57.2190000
  47.3259408  36.5609408  57.7080000  48.0999408  36.5049408  56.4080000
  55.5609408  41.1319408  45.4750000  55.1189408  40.5969408  46.1340000
  54.8589408  41.6419408  45.0700000  31.6959408  44.5629408  35.6540000
  31.0739408  44.5129408  34.9270000  31.7619408  43.6639408  35.9750000
  56.7429408  33.6139408  47.8620000  56.4659408  34.0829408  47.0750000
  56.0469408  32.9769408  48.0200000  51.6259408  49.4869408  31.2030000
  52.4039408  49.0829408  31.5860000  51.3859408  50.1789408  31.8190000
  49.8959408  37.7829408  59.2340000  49.4559408  37.5179408  58.4260000
  49.2739408  37.5689408  59.9280000  59.2179408  53.7659408  35.8380000
  59.3659408  54.3189408  35.0710000  59.4309408  52.8809408  35.5410000
  51.2669408  30.7559408  38.5830000  51.3999408  31.0999408  39.4660000
  50.5919408  30.0849408  38.6870000  54.1839408  34.4299408  59.2750000
  53.9199408  35.0219408  58.5710000  53.4349408  34.4179408  59.8720000
  57.0209408  30.6149408  53.3560000  56.1119408  30.3729408  53.1770000
  57.4589408  29.7839408  53.5400000  57.0549408  50.3509408  43.5330000
  56.2059408  50.0659408  43.1960000  57.4329408  49.5649408  43.9270000
  53.3629408  35.0449408  41.8150000  53.7649408  35.8809408  41.5770000
  54.1039408  34.4649408  41.9930000  54.9759408  31.0289408  50.1130000
  54.6729408  31.3969408  49.2830000  54.4759408  31.4979408  50.7810000
  52.5319408  53.9129408  46.2690000  53.3199408  53.8259408  46.8050000
  52.8589408  54.0669408  45.3830000  56.3219408  37.4929408  53.9420000
  56.3019408  36.7529408  54.5480000  57.1049408  37.9849408  54.1900000
  30.1739408  41.8329408  41.6060000  30.4409408  41.6049408  42.4960000
  30.8999408  42.3529408  41.2630000  55.7369408  49.1459408  38.1800000
  54.8499408  49.1279408  38.5390000  56.1869408  48.4239408  38.6170000
  46.6539408  39.5689408  37.1000000  46.2859408  39.1019408  36.3490000
  47.5579408  39.2609408  37.1550000  48.3429408  55.7469408  36.0430000
  48.8659408  54.9999408  35.7510000  47.5969408  55.7659408  35.4440000
  34.7929408  55.8129408  35.2480000  34.3529408  56.6369408  35.4600000
  34.0799408  55.1949408  35.0880000  53.2419408  53.1659408  40.4920000
  52.9709408  53.7249408  39.7630000  52.5509408  52.5069408  40.5570000
  55.7379408  56.5139408  46.0000000  55.5399408  55.6189408  45.7260000
  54.8859408  56.8929408  46.2160000  30.0309408  36.3349408  37.2890000
  29.4529408  35.8939408  36.6650000  30.7089408  36.7369408  36.7450000
  35.4109408  31.6389408  44.1010000  36.3529408  31.5459408  43.9540000
  35.1199408  32.2449408  43.4200000  50.9789408  41.3509408  58.1040000
  51.4849408  40.7389408  58.6380000  51.4719408  41.4199408  57.2860000
  42.0409408  33.7889408  30.3090000  41.4489408  34.5119408  30.1020000
  42.7159408  33.8299408  29.6310000  54.4599408  32.0869408  47.5660000
  54.6979408  32.1839408  46.6440000  53.9199408  31.2969408  47.5930000
  38.5499408  34.3989408  49.4280000  39.1569408  34.0959408  50.1040000
  37.8149408  33.7869408  49.4750000  57.6739408  37.2299408  58.4930000
  58.1929408  38.0039408  58.2730000  57.5139408  36.7999408  57.6530000
  51.2339408  31.7299408  41.0500000  51.0569408  31.7479408  41.9900000
  51.0979408  32.6329408  40.7630000  52.1169408  36.2239408  46.4610000
  51.5759408  36.8179408  46.9810000  51.6809408  36.1839408  45.6100000
  47.0459408  39.7769408  60.0950000  46.9329408  40.7139408  60.2500000
  47.3599408  39.7189408  59.1920000  57.9949408  31.5439408  39.2960000
  57.6689408  30.7739408  39.7610000  57.5859408  31.4939408  38.4320000
  34.1849408  49.2609408  45.5620000  33.2749408  49.4589408  45.3410000
  34.2369408  49.3929408  46.5080000  51.5719408  46.0879408  49.4610000
  51.2589408  46.5549408  50.2350000  52.0279408  45.3219408  49.8100000
  54.5889408  42.8039408  48.0590000  55.3309408  42.2919408  47.7360000
  54.9889408  43.5189408  48.5550000  32.6959408  34.0899408  51.8710000
  32.3059408  33.5869408  51.1560000  32.9999408  34.8979408  51.4560000
  59.8669408  52.4849408  53.7190000  60.5199408  52.0109408  53.2050000
  59.1229408  52.5889408  53.1250000  52.9719408  59.7709408  36.6800000
  52.3179408  60.1079408  37.2920000  53.6439408  59.3789408  37.2390000
  60.0319408  39.3559408  37.3470000  59.0959408  39.2539408  37.5190000
  60.1719408  38.9109408  36.5120000  42.1399408  37.4559408  42.2220000
  43.0799408  37.4309408  42.0430000  41.9669408  36.6499408  42.7080000
  52.2569408  42.3619408  41.4830000  51.7519408  43.1539408  41.2990000
  52.2079408  41.8529408  40.6740000  57.9939408  38.9349408  48.7130000
  58.8849408  38.7869408  49.0320000  57.4419408  38.4079408  49.2910000
  55.9349408  51.0989408  58.9360000  55.4299408  51.0179408  58.1280000
  56.4369408  51.9069408  58.8260000  32.6369408  38.9269408  38.6340000
  33.0599408  39.1289408  39.4690000  31.7709408  39.3279408  38.7010000
  31.9669408  38.2519408  48.4270000  32.8179408  38.6559408  48.5950000
  31.4089408  38.5619408  49.1400000  57.5039408  35.9579408  42.6760000
  57.6349408  35.1329408  42.2080000  57.4329408  36.6169408  41.9850000
  36.0659408  33.5049408  33.3350000  35.7129408  34.3689408  33.5490000
  35.3759408  33.0859408  32.8200000  50.1629408  33.2489408  37.1740000
  50.7889408  32.6829408  37.6270000  49.4289408  33.3299408  37.7820000
  46.8479408  59.6619408  40.6200000  46.3209408  59.0759408  41.1630000
  46.2789408  59.8849408  39.8840000  35.8869408  40.2809408  35.3640000
  35.6359408  40.8369408  36.1020000  35.8729408  40.8659408  34.6070000
  52.0509408  57.8479408  51.3780000  52.2919408  57.3129408  50.6220000
  52.4079408  58.7149408  51.1820000  56.0049408  58.4509408  50.5770000
  55.3879408  57.8689408  50.1320000  55.6789408  59.3319408  50.3920000
  45.9519408  45.9449408  30.6750000  45.0699408  45.6069408  30.8280000
  46.3909408  45.2529408  30.1800000  52.1649408  37.7679408  38.6350000
  53.0789408  37.4839408  38.6030000  52.1279408  38.5239408  38.0490000
  54.3869408  40.8979408  37.2380000  54.6949408  41.3449408  38.0260000
  55.0989408  41.0059408  36.6070000  50.4669408  57.5979408  46.5020000
  50.0149408  58.4079408  46.7400000  49.9129408  56.9009408  46.8520000
  47.1799408  54.4859408  41.5940000  47.1339408  54.0919408  40.7230000
  47.8769408  55.1389408  41.5260000  57.1109408  37.9229408  40.7590000
  56.6699408  38.6599408  41.1820000  57.2859408  38.2279408  39.8680000
  54.4309408  38.2329408  30.1660000  54.9999408  38.8329408  29.6840000
  54.9499408  37.9689408  30.9260000  57.6649408  47.8339408  50.4340000
  57.0099408  47.9209408  51.1270000  57.7929408  48.7259408  50.1110000
  50.4459408  35.7249408  35.9510000  50.6899408  34.9389408  36.4390000
  51.2809408  36.0999408  35.6680000  34.0989408  47.2339408  50.9040000
  33.5579408  47.6299408  50.2210000  34.7849408  47.8809408  51.0720000
  53.0409408  55.6989408  37.7480000  52.2169408  56.1149408  37.4950000
  53.0589408  54.8799408  37.2530000  45.0709408  33.1099408  41.9730000
  45.9309408  32.7019408  41.8700000  44.5769408  32.4959408  42.5170000
  31.2549408  36.8109408  44.1630000  30.3669408  36.7379408  44.5100000
  31.5479408  37.6809408  44.4330000  31.2039408  48.3319408  38.1590000
  31.7869408  48.4599408  38.9080000  30.4139408  47.9419408  38.5330000
  40.8509408  48.0429408  50.5640000  41.5169408  47.8769408  49.8970000
  40.6929408  47.1879408  50.9640000  55.3289408  43.5029408  41.5810000
  55.0329408  44.2309408  42.1270000  56.1189408  43.1829408  42.0170000
  57.1119408  57.8559408  44.3000000  56.6299408  57.3489408  44.9530000
  58.0099408  57.8809408  44.6300000  54.7879408  32.1149408  35.8990000
  54.1839408  31.3719408  35.9120000  55.6579408  31.7159408  35.9040000
  49.4179408  45.1679408  46.0930000  50.2329408  44.6729408  46.0060000
  49.6999408  46.0539408  46.3210000  57.7659408  43.5989408  33.8470000
  57.7389408  43.8419408  34.7720000  57.9009408  44.4269408  33.3850000
  35.1689408  44.5189408  46.3780000  35.8409408  44.4369408  47.0540000
  34.4199408  44.9079408  46.8290000  52.8469408  44.3839408  59.2860000
  53.0729408  45.2939408  59.4810000  52.3399408  44.4319408  58.4760000
  54.5049408  33.7859408  38.3370000  54.6659408  33.1259408  37.6630000
  55.3689408  33.9629408  38.7110000  57.8919408  45.9599408  31.8140000
  57.0629408  45.4949408  31.6950000  58.2699408  46.0039408  30.9360000
  51.4209408  35.9589408  43.7260000  50.7449408  36.4539408  43.2630000
  52.0389408  35.6999408  43.0420000  34.4059408  40.8699408  31.0480000
  33.6999408  41.4429408  31.3470000  35.1239408  41.0339408  31.6600000
  47.9489408  47.1749408  41.2960000  47.9059408  46.2389408  41.0990000
  48.8179408  47.2979408  41.6800000  55.4809408  41.9639408  39.4060000
  55.1199408  42.5119408  40.1030000  56.2799408  41.5939408  39.7810000
  57.2379408  34.9699408  38.0610000  57.3909408  35.8909408  38.2740000
  57.5609408  34.8749408  37.1650000  54.1389408  38.9709408  54.3760000
  53.4629408  38.4299408  53.9690000  54.9209408  38.4189408  54.3760000
  46.7859408  48.4209408  31.6810000  46.7219408  47.5299408  31.3370000
  47.4129408  48.8559408  31.1040000  52.8489408  43.5719408  49.9600000
  53.5609408  43.2709408  49.3950000  52.1069408  43.0129408  49.7290000
  53.2589408  30.4689408  44.2250000  53.7039408  29.7619408  43.7580000
  53.9489408  31.1049408  44.4120000  38.5139408  48.9249408  34.6940000
  38.4449408  47.9949408  34.9100000  37.8739408  49.0569408  33.9950000
  30.9149408  42.1979408  33.5130000  30.7669408  42.8599408  32.8380000
  30.2449408  41.5339408  33.3490000  46.2619408  35.6629408  41.8050000
  47.1559408  35.3529408  41.9450000  45.7269408  34.8699408  41.8260000
  55.2609408  32.5219408  45.1500000  56.1599408  32.1979408  45.2140000
  55.1129408  32.6349408  44.2110000  56.0369408  39.7699408  42.4210000
  56.3529408  39.1019408  43.0300000  55.0999408  39.8379408  42.6050000
  53.0209408  38.4339408  33.5050000  53.2149408  39.3699408  33.4500000
  53.4379408  38.1499408  34.3190000  48.3969408  31.7669408  34.5070000
  48.1719408  31.0319408  35.0770000  49.3529408  31.8069408  34.5340000
  57.9889408  39.2129408  55.4190000  58.5799408  39.2639408  56.1700000
  57.4759408  40.0199408  55.4620000  59.4079408  50.4649408  42.4830000
  58.5159408  50.4729408  42.8300000  59.2959408  50.4509408  41.5330000
  49.9099408  38.3669408  40.0660000  49.9099408  39.2509408  39.6990000
  50.6139408  37.9149408  39.6030000  52.6919408  41.3699408  56.1520000
  52.7639408  40.5559408  55.6530000  53.5839408  41.5479408  56.4510000
  52.3429408  47.8229408  43.7280000  52.4789408  48.5569408  44.3260000
  51.4959408  47.9999408  43.3180000  48.5539408  48.9259408  54.6820000
  48.7939408  48.2999408  55.3660000  49.3529408  49.4279408  54.5250000
  30.9789408  41.7839408  36.4660000  30.8059408  41.5689408  35.5490000
  30.8379408  40.9619408  36.9360000  48.5449408  36.2349408  38.9460000
  48.6869408  36.3049408  38.0020000  48.8589408  37.0669408  39.2990000
  47.5829408  32.1169408  41.6990000  47.5359408  31.9249408  42.6360000
  47.4419408  31.2719408  41.2740000  53.0879408  36.0449408  32.2860000
  53.1179408  36.9629408  32.5550000  52.5769408  36.0479408  31.4770000
  49.4299408  59.0179408  30.8690000  50.3869408  59.0099408  30.8630000
  49.1899408  58.4979408  31.6360000  53.0929408  34.5809408  56.6170000
  53.7929408  34.1529408  56.1250000  52.4559408  34.8409408  55.9520000
  59.4029408  51.3029408  46.8030000  59.1189408  52.1149408  46.3830000
  60.2919408  51.4879408  47.1050000  59.9999408  33.3119408  38.7350000
  59.2879408  32.6869408  38.8720000  59.6239408  34.1599408  38.9690000
  37.9229408  30.9289408  37.0610000  38.3859408  31.4039408  37.7510000
  37.6119408  31.6119408  36.4670000  56.0629408  36.2019408  32.8730000
  56.7759408  36.4759408  32.2960000  55.4759408  35.7009408  32.3070000
  55.4119408  50.8149408  31.5320000  55.4999408  50.9999408  30.5970000
  56.2239408  50.3649408  31.7650000  58.3659408  35.4669408  49.3010000
  58.8039408  35.9929408  48.6320000  58.0599408  34.6899408  48.8330000
  43.7059408  30.8079408  58.7940000  42.8089408  30.6749408  59.0990000
  44.2449408  30.6919408  59.5770000  50.9419408  34.3839408  47.7550000
  50.5819408  33.9059408  47.0080000  51.5239408  35.0359408  47.3640000
  49.5519408  43.4549408  59.3200000  49.6209408  42.9329408  60.1200000
  49.9389408  42.9039408  58.6400000  59.4049408  39.7769408  31.2160000
  59.7829408  39.6169408  30.3520000  58.8879408  38.9919408  31.4010000
  53.8139408  46.7889408  59.7140000  53.7769408  47.3819408  60.4640000
  54.6549408  46.9789408  59.2980000  32.6029408  46.3849408  57.6050000
  32.3689408  46.0419408  56.7430000  33.5349408  46.1849408  57.6980000
  51.4199408  43.2069408  54.2540000  51.6209408  42.3409408  54.6100000
  51.2789408  43.0559408  53.3200000  54.3839408  46.4509408  56.5200000
  54.4989408  47.3369408  56.1780000  54.0379408  46.5779408  57.4040000
  59.1759408  40.3779408  52.4850000  58.2839408  40.5879408  52.2080000
  59.0939408  40.1619408  53.4140000  57.5159408  41.6489408  48.8270000
  57.5849408  40.6959408  48.7670000  57.6049408  41.8379408  49.7610000
  58.1189408  43.0759408  53.9840000  58.7619408  42.6759408  54.5710000
  57.4529408  43.4369408  54.5690000  30.9759408  43.9229408  56.7960000
  31.2779408  44.0099408  57.7000000  31.7439408  43.6149408  56.3150000
  54.1129408  31.7349408  58.1150000  54.7809408  31.4299408  57.5010000
  54.4059408  32.6089408  58.3730000  51.7639408  43.3609408  32.3840000
  51.7739408  43.7069408  31.4920000  50.9559408  42.8499408  32.4340000
  30.6829408  34.4809408  56.5800000  30.8219408  34.3349408  55.6450000
  30.8769408  35.4089408  56.7100000  58.0309408  55.7699408  30.2010000
  57.6519408  56.3839408  29.5710000  58.7909408  56.2309408  30.5560000
  32.9169408  40.2559408  52.9200000  32.3259408  40.8239408  52.4250000
  33.4999408  40.8599408  53.3800000  51.1939408  34.9999408  54.4080000
  50.3499408  35.2639408  54.7730000  51.2559408  34.0639408  54.5980000
  56.5439408  35.5789408  55.9390000  55.8209408  34.9659408  55.8060000
  57.3229408  35.0939408  55.6660000  58.7599408  58.1839408  33.0480000
  58.8759408  57.2849408  33.3560000  59.4779408  58.3219408  32.4310000
  32.6489408  37.0719408  53.3300000  32.9159408  37.8839408  52.8980000
  32.1039408  36.6239408  52.6820000  52.4329408  54.4709408  30.8190000
  51.6569408  54.3989408  31.3750000  52.5059408  53.6149408  30.3970000
  57.0089408  37.7539408  50.9100000  57.1639408  37.5669408  51.8360000
  56.1749408  37.3249408  50.7160000  33.2349408  48.6979408  54.7910000
  32.6099408  47.9739408  54.8150000  34.0829408  48.2909408  54.9680000
  35.1829408  45.2449408  58.7310000  35.2499408  44.6459408  57.9880000
  36.0909408  45.4169408  58.9820000  49.5569408  49.2589408  34.7920000
  49.8279408  48.5009408  34.2750000  49.5719408  49.9889408  34.1730000
  56.9399408  40.5709408  35.5480000  57.2969408  41.4359408  35.7460000
  57.5429408  40.2049408  34.9000000  52.1869408  37.3489408  53.2340000
  52.6329408  37.2299408  52.3960000  51.9849408  36.4599408  53.5270000
  53.0549408  56.8219408  45.9560000  52.1179408  56.8199408  46.1500000
  53.1779408  56.0819408  45.3610000  56.0829408  44.9759408  52.9120000
  56.8299408  44.5689408  52.4730000  56.1679408  44.7089408  53.8270000
  31.7139408  34.7479408  34.2270000  31.3929408  34.3309408  33.4270000
  31.0859408  34.4889408  34.9010000  56.7119408  58.8939408  31.2240000
  57.5319408  58.5429408  31.5710000  56.3319408  59.3829408  31.9540000
  54.2559408  53.5429408  48.3680000  54.2759408  52.7569408  48.9150000
  55.1489408  53.6239408  48.0320000  57.4089408  58.0439408  58.3580000
  56.8659408  58.5749408  58.9420000  58.0689408  58.6529408  58.0260000
  36.1619408  51.5309408  55.3790000  36.6229408  52.3089408  55.0660000
  36.8009408  50.8229408  55.2930000  54.1759408  48.5089408  31.7660000
  54.5339408  49.3739408  31.5650000  54.8279408  48.1069408  32.3410000
  55.2449408  45.1359408  49.2390000  54.6809408  45.3399408  49.9860000
  55.0279408  45.8009408  48.5860000  57.8889408  32.9389408  30.7890000
  57.1389408  32.3659408  30.9500000  57.5709408  33.8159408  31.0000000
  47.5889408  35.9449408  51.8650000  47.9269408  35.0509408  51.9150000
  48.2399408  36.4199408  51.3480000  48.6329408  33.7929408  57.6990000
  49.4459408  33.2949408  57.6140000  48.5859408  34.0199408  58.6280000
  59.2179408  41.7099408  56.2810000  59.3859408  41.1539408  57.0420000
  59.5759408  42.5639408  56.5240000  50.0679408  36.6019408  50.6770000
  50.4109408  35.7399408  50.4420000  50.8469408  37.1369408  50.8290000
  59.4139408  33.1659408  46.0720000  59.2369408  32.3849408  46.5970000
  58.9069408  33.8589408  46.4960000  56.1419408  42.3979408  57.6270000
  55.4329408  42.2329408  58.2480000  56.9029408  42.5879408  58.1750000
  47.8799408  37.6249408  54.1220000  47.7579408  36.6759408  54.0920000
  47.0159408  37.9709408  54.3480000  51.5639408  45.6829408  55.4200000
  52.2419408  45.5029408  56.0710000  51.3869408  44.8329408  55.0160000
  59.8499408  32.5939408  58.7080000  59.3119408  32.9239408  59.4270000
  59.7199408  33.2259408  58.0010000  54.0009408  34.7069408  35.0710000
  53.8849408  34.5229408  34.1390000  54.2479408  33.8649408  35.4530000
  58.6979408  34.9809408  53.9730000  59.2289408  35.6649408  54.3820000
  59.2709408  34.2149408  53.9480000  32.5169408  33.7909408  58.9940000
  32.3399408  34.7299408  59.0370000  32.0049408  33.4829408  58.2460000
  39.8899408  41.8059408  47.1790000  40.2009408  41.2239408  47.8720000
  40.1229408  41.3559408  46.3660000  32.2539408  45.9619408  54.7120000
  31.4929408  45.4689408  54.4070000  33.0069408  45.4519408  54.4130000
  50.1359408  46.2199408  58.9780000  49.9219408  45.3049408  58.7990000
  50.5769408  46.2019408  59.8280000  50.0029408  39.2039408  53.4090000
  50.8009408  38.6759408  53.4560000  49.3039408  38.6049408  53.6730000
  53.6059408  42.7209408  44.1930000  53.3069408  42.6279408  43.2890000
  53.8659408  43.6389408  44.2670000  51.9269408  48.4589408  57.4240000
  51.6859408  49.2179408  57.9550000  51.2059408  47.8409408  57.5460000
  50.6599408  50.6539408  58.5530000  50.8069408  50.9329408  59.4560000
  50.5649408  51.4699408  58.0610000  53.0969408  37.0939408  50.7320000
  53.5719408  37.7899408  50.2780000  53.5829408  36.2959408  50.5220000
  30.1209408  37.1739408  55.0360000  31.0009408  37.3079408  54.6820000
  29.6779408  38.0119408  54.9010000  51.2829408  34.2129408  40.2370000
  52.1709408  34.4309408  40.5200000  50.9569408  35.0169408  39.8310000
  35.2779408  41.5559408  37.5480000  34.8449408  40.9229408  38.1220000
  35.5749408  42.2489408  38.1370000  36.0519408  36.0389408  42.9900000
  36.7619408  35.9259408  42.3580000  35.9799408  36.9859408  43.1040000
  55.8779408  44.2189408  55.3820000  55.9199408  43.5969408  56.1090000
  55.3539408  44.9449408  55.7190000  56.9689408  56.1229408  52.1750000
  57.8909408  56.2139408  52.4190000  56.8059408  56.8519408  51.5770000
  30.5089408  39.7659408  43.8980000  29.8269408  39.7809408  44.5700000
  30.2249408  39.0889408  43.2830000  52.0069408  43.9469408  46.1180000
  52.6479408  43.3789408  45.6900000  52.4899408  44.3509408  46.8390000
  51.3509408  53.5839408  57.1550000  52.0519408  54.1379408  56.8110000
  50.8199408  54.1729408  57.6900000  33.1369408  45.9089408  47.4420000
  33.2879408  46.7359408  47.8990000  32.3239408  46.0479408  46.9560000
  54.1139408  33.7159408  51.1230000  54.5879408  34.4759408  50.7840000
  54.5419408  33.5189408  51.9560000  29.8739408  39.2279408  57.4500000
  30.4399408  39.4969408  56.7260000  30.4529408  38.7489408  58.0430000
  43.7419408  36.4529408  45.6390000  44.2449408  36.8479408  44.9270000
  43.4279408  37.1979408  46.1520000  58.1879408  42.5169408  59.3490000
  59.0379408  42.9559408  59.3450000  58.2049408  41.9679408  60.1330000
  33.9139408  44.3159408  50.0960000  33.3239408  45.0459408  50.2810000
  33.8699408  44.2069408  49.1460000  49.3529408  39.0949408  49.9650000
  48.9699408  39.8979408  50.3180000  49.1119408  38.4159408  50.5960000
  47.2159408  32.2419408  44.2630000  47.4569408  31.6839408  45.0030000
  46.9959408  33.0849408  44.6600000  35.4609408  44.3169408  56.1370000
  34.8509408  43.6819408  55.7600000  36.2679408  43.8219408  56.2740000
  36.1759408  33.6459408  53.8610000  37.0319408  33.4339408  54.2340000
  35.6269408  33.8449408  54.6190000  30.6509408  44.1239408  53.5250000
  29.7119408  43.9479408  53.5810000  30.9809408  43.4709408  52.9080000
  32.0539408  42.5049408  51.6720000  32.7779408  43.0489408  51.3630000
  31.3189408  42.7389408  51.1060000  57.4739408  38.2959408  37.3770000
  57.0789408  39.0559408  36.9490000  57.4529408  37.6089408  36.7110000
  34.6389408  38.2059408  30.3610000  34.5499408  39.1419408  30.5400000
  35.5799408  38.0399408  30.4160000  33.5789408  35.2939408  44.7230000
  34.2869408  35.7469408  44.2640000  32.8469408  35.9109408  44.7040000
  44.3679408  38.5949408  50.4910000  44.4269408  39.5469408  50.5680000
  44.3979408  38.4279408  49.5490000  32.4339408  59.4479408  51.3220000
  31.7669408  58.7629408  51.3040000  32.1439408  60.0829408  50.6670000
  49.6399408  47.0629408  51.6660000  50.2749408  47.2579408  52.3550000
  49.4069408  47.9179408  51.3040000  57.1349408  42.3819408  51.4320000
  56.3539408  41.8949408  51.6950000  57.7049408  42.3559408  52.2000000
  31.7099408  34.5589408  47.3620000  31.2679408  34.1129408  46.6390000
  31.0809408  35.2169408  47.6580000  33.7859408  33.1389408  35.5410000
  34.7399408  33.2159408  35.5740000  33.5029408  33.8839408  35.0110000
  52.3099408  40.3559408  51.7640000  51.7209408  41.1059408  51.6740000
  51.7629408  39.6659408  52.1410000  58.6129408  50.5529408  50.3810000
  59.2029408  50.8629408  51.0670000  58.5069408  51.3039408  49.7970000
  48.5159408  55.7009408  30.7170000  48.6129408  56.6029408  31.0230000
  49.1969408  55.5999408  30.0510000  54.3199408  45.3179408  43.4330000
  53.7379408  46.0469408  43.2200000  54.8819408  45.6559408  44.1310000
  52.5469408  45.5769408  34.2880000  51.8889408  46.0879408  33.8160000
  52.4899408  44.7009408  33.9070000  49.5539408  30.0589408  47.2370000
  49.8519408  30.3489408  46.3750000  48.6799408  30.4369408  47.3290000
  54.5779408  56.1839408  49.7680000  55.3119408  55.7339408  49.3490000
  53.8019408  55.8429408  49.3220000  51.9709408  59.7309408  34.2900000
  51.4919408  60.5529408  34.3860000  52.2929408  59.5359408  35.1700000
  49.7779408  53.9979408  43.5600000  50.2779408  54.1409408  42.7560000
  50.3799408  53.5269408  44.1360000  46.2369408  32.5929408  37.0360000
  46.4979408  31.7169408  36.7530000  47.0569408  33.0199408  37.2820000
  47.8549408  33.6489408  38.8230000  48.0219408  34.5789408  38.9790000
  47.6949408  33.2839408  39.6930000  50.3289408  54.1079408  32.8240000
  49.6049408  54.5969408  32.4350000  50.2499408  54.2699408  33.7640000
  51.6989408  30.0119408  49.4060000  52.3109408  29.7979408  48.7010000
  50.9559408  30.4209408  48.9620000  57.1489408  51.4149408  38.1260000
  57.0169408  51.9989408  38.8730000  56.3659408  50.8649408  38.1090000
  51.1139408  32.1109408  34.7390000  51.1109408  32.6599408  35.5240000
  51.5609408  32.6399408  34.0780000  52.0079408  40.1399408  46.2200000
  51.9829408  40.3189408  45.2790000  52.8879408  39.7949408  46.3750000
  46.6089408  48.0909408  43.3550000  46.7289408  47.5009408  42.6110000
  47.4469408  48.5439408  43.4390000  57.8639408  47.4319408  39.3610000
  57.7469408  47.2979408  40.3010000  58.3079408  48.2779408  39.2930000
  31.0329408  55.6039408  43.9710000  30.2089408  55.2399408  44.2930000
  31.2309408  55.0919408  43.1870000  31.9339408  59.6879408  48.6420000
  32.2469408  58.7839408  48.6550000  31.5109408  59.7829408  47.7880000
  31.1559408  48.4609408  50.0400000  30.2709408  48.7809408  49.8660000
  31.0349408  47.5459408  50.2950000  32.0799408  58.3339408  33.5080000
  31.6479408  58.7749408  32.7770000  32.4669408  59.0439408  34.0210000
  47.4589408  49.6149408  36.9330000  46.5709408  49.2699408  37.0270000
  47.7209408  49.3639408  36.0470000  55.5019408  55.3549408  58.7860000
  56.3499408  54.9159408  58.7100000  55.0439408  55.1329408  57.9750000
  56.6749408  47.5639408  43.5590000  56.2789408  47.7839408  44.4030000
  56.8119408  46.6169408  43.5990000  49.9319408  53.5469408  35.4520000
  49.4589408  52.7149408  35.4690000  50.8459408  53.3059408  35.6030000
  53.0439408  51.6259408  43.4910000  52.5689408  51.6099408  42.6600000
  53.9519408  51.4399408  43.2520000  51.5259408  57.0239408  33.9340000
  51.8329408  56.7029408  33.0860000  51.8009408  57.9409408  33.9570000
  52.5659408  53.1829408  36.2490000  52.5139408  52.3989408  36.7960000
  53.4839408  53.2299408  35.9820000  32.7359408  53.2419408  51.7040000
  32.8889408  53.6109408  50.8350000  32.5469408  53.9999408  52.2570000
  55.2289408  33.2469408  42.4100000  54.8559408  32.6399408  41.7710000
  56.0849408  33.4789408  42.0500000  33.0529408  56.7679408  45.5720000
  32.4119408  56.2939408  45.0430000  33.1159408  57.6289408  45.1590000
  54.1119408  51.8259408  33.7350000  54.7569408  52.4489408  34.0690000
  54.4369408  51.5849408  32.8680000  55.3229408  46.5199408  33.7300000
  55.4299408  45.8639408  33.0410000  54.4889408  46.2979408  34.1450000
  31.2079408  54.3789408  58.9760000  30.7519408  53.5889408  59.2650000
  32.1189408  54.1049408  58.8680000  55.6729408  50.8899408  53.2500000
  55.9379408  51.6929408  52.8020000  55.0279408  50.4909408  52.6670000
  58.0719408  45.0429408  44.1250000  58.3279408  44.1539408  43.8810000
  58.7059408  45.6059408  43.6790000  51.4969408  47.6769408  38.9910000
  50.6869408  47.9649408  39.4120000  51.2069408  47.1699408  38.2330000
  51.3089408  51.2979408  40.9070000  50.3719408  51.3809408  41.0840000
  51.3559408  50.9219408  40.0280000  49.9409408  55.9629408  58.3800000
  49.0549408  56.3189408  58.3170000  50.3819408  56.2749408  57.5900000
  52.7679408  49.3119408  47.3790000  52.3009408  50.0629408  47.0110000
  53.4259408  49.6989408  47.9570000  49.7129408  51.5399408  37.5910000
  49.1179408  50.8719408  37.2500000  50.5109408  51.0599408  37.8100000
  53.7039408  47.7479408  40.5130000  54.1529408  46.9339408  40.2860000
  52.9529408  47.7799408  39.9200000  57.4709408  55.8359408  36.5070000
  57.7579408  54.9329408  36.6370000  57.3959408  55.9299408  35.5570000
  57.1539408  55.2229408  48.8610000  57.2309408  54.5909408  48.1470000
  57.9429408  55.7599408  48.7930000  58.9979408  45.2499408  47.3840000
  58.6679408  45.0439408  48.2580000  58.5579408  44.6249408  46.8080000
  47.0249408  52.7099408  47.6690000  46.8809408  52.0149408  47.0260000
  46.7759408  53.5139408  47.2140000  55.5159408  32.1409408  32.2740000
  54.6969408  32.6339408  32.2290000  55.2789408  31.3189408  32.7030000
  57.8379408  46.4779408  34.9610000  57.1649408  46.4449408  34.2810000
  58.2269408  47.3489408  34.8720000  48.1619408  41.4479408  48.1310000
  48.1129408  41.6889408  49.0560000  49.0279408  41.7449408  47.8520000
  41.7949408  34.1809408  45.4660000  41.0579408  34.3869408  46.0420000
  42.4969408  34.7619408  45.7580000  54.6279408  59.7129408  33.2650000
  53.6809408  59.5999408  33.3410000  54.9819408  59.3039408  34.0550000
  54.1549408  58.4689408  38.6710000  54.9869408  57.9959408  38.6860000
  53.5239408  57.8559408  39.0480000  57.6299408  58.3429408  37.5860000
  57.5669408  57.3909408  37.5050000  57.5549408  58.5079408  38.5260000
  56.7179408  53.2369408  47.1170000  57.0469408  53.5299408  46.2670000
  56.4409408  52.3329408  46.9690000  58.6429408  53.4169408  32.1320000
  59.5469408  53.7219408  32.2000000  58.2299408  54.0239408  31.5180000
  48.1019408  59.3339408  43.8490000  48.8249408  59.9569408  43.9170000
  48.5209408  58.5029408  43.6270000  30.8829408  45.8929408  50.9960000
  31.0199408  45.6469408  51.9110000  30.0429408  45.4959408  50.7640000
  59.7119408  57.0349408  48.1520000  59.5509408  57.4989408  47.3300000
  59.2639408  57.5589408  48.8150000  37.1339408  53.6299408  47.5170000
  36.9599408  54.4419408  47.0430000  37.4829408  53.0339408  46.8540000
  34.8129408  50.6049408  50.3340000  34.8989408  51.5329408  50.5520000
  34.8869408  50.1529408  51.1740000  55.3029408  56.0099408  41.7730000
  55.0519408  55.5969408  40.9470000  54.6769408  56.7259408  41.8830000
  45.4609408  53.4619408  33.0360000  45.9439408  53.2799408  32.2300000
  45.3659408  52.6069408  33.4560000  43.5109408  57.9189408  45.3630000
  44.4469408  57.8499408  45.5500000  43.2639408  57.0499408  45.0470000
  55.1669408  55.1589408  31.8110000  54.2559408  54.8679408  31.8270000
  55.3879408  55.2049408  30.8810000  51.1539408  57.1659408  36.5480000
  51.4189408  56.9389408  35.6570000  51.5359408  58.0299408  36.7000000
  47.0539408  56.8609408  58.2050000  46.3929408  57.1089408  58.8510000
  46.5519408  56.4939408  57.4770000  46.0469408  34.5639408  45.7710000
  46.0809408  34.5099408  46.7260000  45.4529408  35.2939408  45.5940000
  32.8799408  57.4629408  42.2670000  32.0239408  57.0379408  42.2150000
  33.2679408  57.3299408  41.4030000  58.6919408  49.2009408  33.8620000
  59.5599408  48.8229408  33.7170000  58.1619408  48.8679408  33.1380000
  57.3199408  48.8899408  31.5420000  57.8129408  49.1749408  30.7720000
  57.3469408  47.9339408  31.5040000  30.1709408  55.8719408  33.6420000
  30.6029408  55.3299408  32.9810000  30.8439408  56.4929408  33.9200000
  51.9069408  50.2649408  38.2860000  51.7919408  49.3209408  38.3890000
  52.4119408  50.3589408  37.4790000  50.8209408  55.7819408  41.5460000
  50.6039408  55.9449408  40.6280000  50.7959408  56.6459408  41.9560000
  57.3569408  31.1799408  36.2670000  57.6309408  31.6629408  35.4870000
  58.0139408  30.4909408  36.3660000  48.4929408  50.8929408  41.3400000
  48.2899408  50.2629408  40.6490000  47.8709408  51.6069408  41.2050000
  57.5929408  58.9229408  40.4380000  57.4519408  59.3709408  41.2720000
  58.5019408  58.6269408  40.4740000  39.8979408  58.3239408  47.5680000
  40.5479408  57.6229408  47.5210000  39.0609408  57.8869408  47.4100000
  30.6229408  55.0849408  49.8260000  31.5509408  54.8679408  49.9130000
  30.5909408  55.7159408  49.1080000  42.2699408  46.4249408  58.7760000
  42.9509408  47.0969408  58.8060000  42.4539408  45.9319408  57.9760000
  59.5049408  39.6089408  33.9390000  59.2369408  39.4409408  33.0360000
  60.3389408  39.1489408  34.0320000  54.9399408  58.5519408  42.8940000
  55.6679408  58.0659408  43.2810000  55.3499408  59.3119408  42.4820000
  56.2609408  50.5759408  46.5330000  55.9599408  49.7359408  46.1870000
  57.1519408  50.4039408  46.8380000  30.9209408  59.9589408  39.9480000
  31.4189408  59.3979408  39.3520000  30.0779408  60.0829408  39.5120000
  30.1289408  30.2789408  36.1440000  30.1339408  30.2069408  35.1890000
  30.6739408  29.5509408  36.4420000  50.1059408  56.3139408  38.9570000
  50.3829408  56.3689408  38.0430000  49.8789408  57.2129408  39.1940000
  53.6379408  59.1839408  57.3740000  53.8629408  58.6559408  58.1400000
  53.7149408  60.0889408  57.6760000  47.8029408  31.4979408  32.0150000
  47.8179408  31.3079408  32.9530000  47.9959408  30.6579408  31.5970000
  51.2849408  51.4409408  33.2030000  52.1909408  51.6019408  33.4660000
  50.9289408  52.3109408  33.0260000  54.8339408  48.1349408  45.5300000
  55.1179408  47.2749408  45.8380000  54.2629408  48.4619408  46.2250000
  55.9399408  53.0769408  40.1740000  55.0409408  52.8989408  40.4490000
  55.8779408  53.8789408  39.6550000  37.8459408  34.6539408  58.8310000
  38.2209408  34.7389408  59.7070000  37.3629408  33.8279408  58.8550000
  30.5509408  53.0329408  38.3860000  30.1859408  53.4379408  37.6000000
  29.8569408  53.1109408  39.0410000  51.0919408  32.8469408  57.7180000
  51.6289408  32.2659408  58.2570000  51.7059408  33.5029408  57.3870000
  49.0939408  55.2559408  47.6310000  48.8449408  55.5209408  48.5160000
  48.5189408  54.5169408  47.4310000  54.6889408  56.4959408  53.9890000
  55.4609408  56.4079408  53.4300000  54.0209408  55.9579408  53.5630000
  49.7889408  57.3129408  53.2930000  50.5389408  57.1429408  52.7230000
  49.6029408  58.2449408  53.1720000  56.0789408  58.6559408  35.3270000
  56.5179408  58.9459408  36.1270000  56.5309408  57.8469408  35.0860000
  51.9989408  57.5469408  31.0180000  52.9239408  57.6119408  30.7810000
  51.7279408  56.6889408  30.6910000  47.6129408  50.7449408  33.2240000
  47.4149408  49.8939408  32.8320000  47.7729408  51.3209408  32.4770000
  58.7029408  53.2359408  50.3090000  59.5569408  53.6369408  50.1500000
  58.0819408  53.8059408  49.8540000  49.1839408  52.3919408  49.3730000
  48.8759408  52.0519408  50.2130000  48.3959408  52.4469408  48.8330000
  58.9259408  49.3549408  59.1130000  58.4939408  49.0299408  58.3230000
  59.7449408  48.8629408  59.1590000  52.4529408  52.8319408  54.3870000
  53.2899408  53.2969408  54.4070000  51.9209408  53.3219408  53.7600000
  59.3329408  50.1069408  39.6110000  60.1389408  50.5079408  39.2850000
  58.7129408  50.1949408  38.8870000  59.7389408  31.2499408  52.7270000
  59.9719408  30.5979408  52.0660000  58.7969408  31.1349408  52.8560000
  44.6139408  54.3099408  58.8680000  43.7559408  54.7329408  58.8890000
  45.0889408  54.7639408  58.1720000  31.4839408  50.5129408  56.1210000
  31.9909408  49.8839408  55.6070000  30.8779408  50.9039408  55.4910000
  56.4009408  40.1289408  59.6700000  56.3809408  40.6799408  60.4520000
  56.2529408  40.7369408  58.9450000  59.0999408  56.4319408  55.9860000
  58.5239408  56.4859408  56.7480000  58.5919408  55.9469408  55.3350000
  57.4289408  54.6289408  54.5640000  56.6139408  54.5409408  54.0710000
  57.3679408  53.9629408  55.2490000  56.4519408  48.2429408  53.9800000
  56.5979408  49.0739408  53.5290000  55.5169408  48.0689408  53.8690000
  56.6279408  35.1689408  60.1560000  55.8039408  34.7719408  59.8740000
  56.6229408  36.0389408  59.7570000  32.8429408  55.7119408  53.1490000
  33.7689408  55.4969408  53.0340000  32.8479408  56.5679408  53.5780000
  53.8769408  51.7659408  57.1800000  54.5629408  52.2469408  56.7180000
  53.0929408  52.3049408  57.0720000  58.0669408  45.0089408  50.1910000
  58.0739408  45.9439408  49.9830000  57.1889408  44.8459408  50.5340000
  56.0639408  47.5379408  58.8710000  56.7539408  46.9079408  58.6660000
  56.4249408  48.3839408  58.6060000  59.9059408  58.0329408  51.8660000
  59.3759408  58.3819408  52.5830000  60.0419408  57.1129408  52.0930000
  57.5559408  53.3009408  58.4550000  58.1949408  53.8009408  58.9620000
  58.0589408  52.9369408  57.7270000  57.8099408  47.9179408  56.6380000
  57.3599408  48.3039408  55.8870000  57.8709408  46.9859408  56.4280000
  50.8229408  50.4389408  54.5460000  51.4419408  51.1659408  54.6110000
  50.8099408  50.2179408  53.6140000  56.1169408  30.6769408  56.5390000
  55.8869408  30.0879408  55.8210000  56.9099408  30.2969408  56.9170000
  54.0979408  42.2559408  59.3850000  53.7049408  43.1289408  59.3770000
  53.3609408  41.6629408  59.5350000  33.7959408  32.6399408  31.5360000
  33.1589408  33.0979408  30.9870000  33.2689408  32.0539408  32.0780000
  59.0779408  52.0099408  56.4940000  59.7929408  51.5059408  56.8830000
  59.4689408  52.4279408  55.7270000  56.4579408  52.1029408  55.8250000
  57.2999408  51.6859408  56.0080000  56.1359408  51.6579408  55.0400000
  54.2699408  59.2149408  54.6630000  54.2869408  58.9489408  55.5820000
  54.4699408  58.4149408  54.1780000  49.3969408  52.8279408  55.2380000
  49.5079408  52.1059408  54.6190000  50.1119408  52.7199408  55.8640000
  50.7379408  33.9019408  50.2470000  50.8629408  33.9519408  49.3000000
  51.6089408  34.0529408  50.6130000  59.0199408  58.8129408  54.3330000
  59.8619408  59.1639408  54.6250000  58.8459408  58.0819408  54.9260000
  46.8359408  31.2099408  57.0900000  47.4759408  30.5949408  57.4500000
  47.1229408  32.0669408  57.4050000  56.1579408  56.4039408  33.9090000
  55.6669408  57.2129408  34.0520000  55.8099408  56.0549408  33.0890000
  47.0399408  58.4119408  54.8180000  47.5809408  58.5059408  55.6020000
  47.1749408  57.5059408  54.5410000  53.6199408  54.9529408  52.0760000
  52.8519408  54.5989408  51.6270000  54.1499408  55.3379408  51.3780000
  51.2529408  53.5169408  50.7880000  50.5179408  53.0819408  50.3570000
  50.8559408  53.9929408  51.5170000  33.1729408  59.6979408  53.8650000
  32.8949408  59.4999408  52.9710000  33.6089408  60.5479408  53.7990000
  54.4219408  39.4159408  50.1160000  55.2529408  39.6309408  50.5400000
  53.7539408  39.7569408  50.7110000  32.7039408  51.1609408  30.5350000
  31.8629408  51.6189408  30.5440000  32.8899408  51.0209408  29.6060000
  48.5739408  56.5729408  49.9790000  49.3969408  57.0059408  50.2050000
  47.9349408  56.9379408  50.5900000  53.9579408  31.6669408  53.3620000
  53.0839408  31.9459408  53.6370000  54.0009408  30.7409408  53.6010000
  58.8059408  46.1259408  59.0390000  59.4149408  46.8549408  58.9240000
  59.3669408  45.3549408  59.1220000  53.5929408  50.4459408  36.1030000
  54.4549408  50.0469408  36.2220000  53.6239408  50.8299408  35.2270000
  51.0189408  51.9559408  47.3460000  50.6409408  52.0609408  48.2200000
  51.4569408  52.7889408  47.1720000  59.3579408  36.4659408  51.7420000
  58.9689408  36.1709408  50.9190000  59.0259408  35.8529408  52.3980000
  35.0389408  50.2599408  53.3180000  35.4329408  50.8059408  53.9980000
  34.2329408  49.9279408  53.7140000  54.5659408  57.9129408  59.5880000
  54.9279408  57.0679408  59.3220000  55.1819408  58.2429408  60.2420000
  52.3159408  30.6029408  30.0200000  52.8489408  30.3259408  30.7650000
  52.9519408  30.8169408  29.3370000  32.0639408  32.4419408  49.6400000
  32.0359408  33.1009408  48.9460000  31.3919408  31.8059408  49.3950000
  46.0279408  59.2599408  48.5900000  45.0909408  59.1729408  48.4130000
  46.1359408  58.9249408  49.4800000  50.3859408  54.2079408  53.2040000
  50.0829408  55.1069408  53.3300000  49.8389408  53.6859408  53.7910000
  30.8689408  36.2169408  30.9050000  31.1979408  36.6709408  30.1290000
  31.6129408  36.1979408  31.5060000  34.5629408  55.8619408  55.9740000
  33.6279408  56.0279408  56.0910000  34.7009408  54.9909408  56.3480000
  40.0009408  56.2329408  51.9690000  40.8279408  55.7619408  52.0740000
  40.2609408  57.1449408  51.8330000  43.1139408  59.2469408  48.1040000
  43.4209408  58.6579408  47.4150000  42.3449408  59.6749408  47.7280000
  34.1209408  43.6749408  73.7610000  34.0209408  44.4239408  74.3480000
  34.6659408  43.0579408  74.2490000  49.4019408  47.0039408  63.4620000
  49.3069408  46.1259408  63.8320000  48.6369408  47.1089408  62.8970000
  36.9639408  57.2739408  64.1330000  36.2589408  56.7169408  64.4630000
  36.9889408  58.0129408  64.7410000  51.1249408  31.1489408  81.7350000
  50.9649408  30.2999408  81.3230000  51.6349408  31.6379408  81.0890000
  36.7109408  48.7099408  81.4700000  36.3839408  49.3649408  82.0880000
  37.6529408  48.8729408  81.4250000  41.8849408  41.9679408  72.0810000
  41.2899408  41.2449408  72.2800000  42.7569408  41.5759408  72.1090000
  35.8789408  36.9689408  68.7010000  35.4139408  36.1719408  68.4480000
  35.9029408  37.4959408  67.9020000  45.1049408  47.8279408  75.6050000
  44.2939408  47.6459408  75.1300000  45.7899408  47.7719408  74.9380000
  30.6359408  44.0729408  68.5360000  29.8129408  44.3929408  68.1640000
  30.9089408  43.3719408  67.9450000  48.8559408  48.6129408  69.2840000
  48.4689408  48.1719408  70.0410000  48.1489408  49.1559408  68.9360000
  39.0639408  38.6819408  77.8260000  38.4579408  38.2489408  78.4280000
  39.3939408  37.9759408  77.2700000  41.2259408  41.3479408  65.7040000
  40.6419408  41.7979408  66.3140000  41.6789408  40.6969408  66.2400000
  47.4669408  45.2269408  77.9080000  47.9479408  45.1439408  78.7320000
  48.1319408  45.1079408  77.2300000  52.0799408  39.5039408  66.3360000
  51.9909408  39.7379408  65.4120000  52.7389408  40.1109408  66.6740000
  35.6149408  43.6859408  68.9500000  35.7649408  43.7169408  69.8950000
  34.7539408  44.0859408  68.8300000  59.3079408  48.9599408  75.2020000
  59.6479408  49.5329408  75.8900000  59.8979408  49.0979408  74.4610000
  42.9309408  55.5519408  74.1980000  43.8639408  55.3599408  74.1090000
  42.5239408  55.1209408  73.4470000  58.0369408  35.5629408  65.5490000
  57.0969408  35.6829408  65.4130000  58.2159408  34.6789408  65.2300000
  48.3629408  51.3589408  60.6810000  47.7089408  52.0489408  60.5670000
  48.2789408  50.8169408  59.8970000  40.6849408  45.9839408  66.6650000
  41.1339408  46.8249408  66.7490000  39.8769408  46.0929408  67.1670000
  58.7999408  39.9389408  75.7730000  57.8609408  39.9999408  75.5990000
  58.8569408  39.5959408  76.6650000  32.3889408  50.7699408  63.8460000
  33.1819408  51.3059408  63.8470000  32.6729408  49.9199408  64.1820000
  47.9779408  44.4559408  70.6650000  47.2519408  44.3639408  70.0480000
  47.7039408  43.9559408  71.4340000  43.5299408  44.6779408  60.5350000
  42.9009408  43.9769408  60.7060000  43.0779408  45.2629408  59.9270000
  46.9329408  52.0279408  73.3670000  47.2779408  52.9039408  73.1980000
  47.6629408  51.4399408  73.1730000  41.7599408  53.1179408  68.5430000
  41.6899408  53.8819408  67.9720000  42.0759408  52.4179408  67.9710000
  44.5309408  56.0489408  61.8910000  45.1549408  56.0429408  61.1650000
  44.9719408  55.5639408  62.5890000  31.5889408  37.8679408  65.1380000
  31.9129408  37.0799408  64.7030000  32.3749408  38.2939408  65.4810000
  34.3779408  31.6949408  76.6380000  33.4469408  31.8319408  76.4640000
  34.7679408  31.5709408  75.7730000  41.0189408  32.1809408  78.1460000
  40.7569408  33.1019408  78.1390000  41.6919408  32.1279408  78.8240000
  45.1549408  30.6799408  68.8720000  44.7649408  31.4279408  68.4200000
  45.0899408  29.9599408  68.2450000  45.4189408  44.0349408  73.0950000
  44.8099408  43.9809408  73.8320000  44.8679408  44.2559408  72.3440000
  36.8749408  56.9259408  69.7580000  37.0919408  57.8089408  70.0560000
  37.0169408  56.9499408  68.8120000  58.5349408  45.5709408  67.6430000
  58.4489408  46.1489408  66.8850000  58.1879408  46.0809408  68.3750000
  38.3539408  36.3839408  63.5020000  39.0179408  36.9059408  63.0520000
  37.9879408  36.9769408  64.1590000  54.3849408  39.4109408  77.3650000
  54.7209408  38.5179408  77.2950000  54.2909408  39.5589408  78.3060000
  37.7939408  43.7699408  67.0920000  37.1589408  43.5089408  67.7590000
  38.3649408  43.0079408  66.9930000  39.0859408  32.8069408  72.3010000
  39.2659408  33.2629408  71.4790000  39.7729408  33.1059408  72.8980000
  45.8509408  43.9929408  69.0110000  45.1649408  44.5659408  68.6690000
  45.4019408  43.1709408  69.2080000  37.6489408  47.3009408  72.5020000
  37.1329408  47.8939408  73.0490000  37.6139408  46.4609408  72.9600000
  52.4549408  33.6049408  62.6640000  51.6819408  33.5749408  62.1000000
  52.7979408  34.4919408  62.5530000  51.2289408  50.5009408  74.9470000
  50.8759408  51.0379408  75.6570000  51.9479408  51.0209408  74.5870000
  41.1919408  56.2969408  61.5580000  41.2509408  57.2469408  61.6600000
  41.6389408  55.9449408  62.3270000  34.6869408  33.6109408  72.3470000
  33.8339408  33.9499408  72.0730000  35.2309408  34.3909408  72.4540000
  41.3659408  50.8169408  72.9800000  41.3449408  51.5859408  72.4090000
  42.2869408  50.5579408  72.9990000  45.5709408  34.5019408  83.2080000
  46.1229408  35.1429408  82.7600000  45.2669408  33.9189408  82.5130000
  44.5329408  49.5259408  67.8070000  44.0209408  48.9609408  68.3850000
  43.9069408  50.1799408  67.4950000  34.9169408  44.0799408  66.0540000
  35.2429408  43.2809408  66.4690000  34.3959408  44.5079408  66.7330000
  41.9419408  34.9309408  78.4310000  42.8109408  35.3169408  78.3240000
  41.7659408  34.9919408  79.3700000  39.3909408  35.9979408  73.5600000
  38.4679408  35.8209408  73.7410000  39.5449408  35.6099408  72.6990000
  36.4589408  49.0469408  74.2110000  35.7969408  48.9559408  74.8960000
  37.0899408  49.6709408  74.5690000  42.7269408  34.7419408  73.0350000
  43.5559408  34.2759408  72.9230000  42.3699408  34.4009408  73.8560000
  40.9189408  45.5149408  71.9010000  40.0709408  45.1079408  71.7250000
  40.7289408  46.4519408  71.9560000  41.2779408  38.6519408  69.3500000
  41.3409408  37.9429408  69.9910000  40.6729408  39.2789408  69.7440000
  37.3769408  58.8119408  61.6800000  36.6809408  58.2869408  61.2850000
  37.2869408  58.6599408  62.6210000  45.6899408  48.6069408  64.5490000
  45.8669408  48.6029408  63.6090000  46.2479408  47.9129408  64.9010000
  36.0069408  30.8799408  64.4630000  36.8559408  30.4709408  64.2940000
  36.1609408  31.8149408  64.3310000  39.4119408  38.7209408  66.5640000
  39.9009408  38.4549408  67.3430000  40.0189408  39.2819408  66.0810000
  40.9679408  48.3959408  75.9660000  41.6029408  47.8829408  75.4660000
  40.1389408  47.9329408  75.8490000  39.0729408  40.0809408  69.9790000
  39.3089408  40.3209408  70.8750000  38.1399408  39.8699408  70.0250000
  38.6629408  53.0849408  65.7270000  39.1639408  52.7029408  66.4480000
  39.3049408  53.2099408  65.0280000  42.1909408  33.0269408  66.6490000
  42.5829408  33.5069408  67.3790000  42.8259408  32.3399408  66.4440000
  32.7639408  40.3209408  75.9390000  32.1979408  40.7929408  75.3280000
  32.1579408  39.8679408  76.5260000  33.7929408  35.9289408  78.5460000
  34.5359408  35.3939408  78.2680000  33.0419408  35.5539408  78.0850000
  37.2649408  35.4869408  70.7700000  36.6499408  36.0649408  70.3180000
  37.6409408  34.9459408  70.0760000  34.4899408  34.3149408  68.6110000
  33.8189408  33.6769408  68.8510000  34.7519408  34.0669408  67.7250000
  48.2059408  41.1969408  71.0920000  48.7899408  41.1579408  70.3350000
  47.3289408  41.0939408  70.7250000  42.6159408  32.7419408  62.6460000
  42.2479408  33.1119408  61.8440000  43.2749408  33.3789408  62.9240000
  33.9959408  40.0319408  79.2360000  34.7059408  39.4889408  78.8920000
  34.1359408  40.8909408  78.8370000  43.6049408  39.6929408  63.1680000
  44.0819408  38.9459408  63.5280000  44.2209408  40.4239408  63.2310000
  40.6809408  41.2849408  60.4750000  40.9629408  41.9649408  59.8630000
  40.5939408  41.7389408  61.3140000  36.1979408  58.7859408  67.3920000
  35.6229408  59.3219408  67.9370000  36.9389408  59.3569408  67.1890000
  45.6389408  36.6119408  68.9870000  45.6199408  36.6119408  69.9440000
  46.5409408  36.8459408  68.7660000  46.1629408  50.3279408  69.8410000
  45.8969408  50.1039408  68.9500000  45.7949408  49.6309408  70.3840000
  48.8369408  49.6889408  73.6890000  49.6529408  49.8079408  74.1740000
  49.0429408  49.9709408  72.7980000  37.3569408  44.9479408  74.1060000
  36.7409408  44.6609408  74.7800000  37.7119408  44.1349408  73.7450000
  52.1589408  41.9809408  68.6940000  52.2029408  42.9319408  68.6020000
  52.8179408  41.6489408  68.0840000  31.5759408  31.8369408  72.3790000
  31.6699408  31.3979408  71.5340000  31.7809408  32.7539408  72.1980000
  39.7979408  43.5629408  80.7020000  39.9119408  42.6129408  80.6900000
  40.2249408  43.8659408  79.9000000  42.6309408  43.1459408  74.3340000
  42.2629408  43.3379408  73.4710000  42.9819408  42.2589408  74.2530000
  40.1429408  38.5439408  62.9460000  40.7999408  38.6049408  62.2530000
  40.5939408  38.8529408  63.7320000  34.7069408  45.4199408  83.1280000
  34.5639408  45.8999408  82.3120000  34.9709408  46.0909408  83.7570000
  32.9149408  46.4549408  74.3630000  33.5279408  47.1049408  74.7050000
  32.2449408  46.3749408  75.0420000  39.9729408  31.6209408  69.1660000
  40.8859408  31.7839408  68.9290000  40.0159408  31.2549408  70.0490000
  42.5159408  39.3919408  67.0440000  42.9239408  38.9559408  66.2950000
  42.6179408  38.7729408  67.7670000  50.6819408  44.5549408  70.8580000
  50.4699408  44.9719408  71.6930000  49.8309408  44.3559408  70.4670000
  35.0659408  42.1979408  78.1450000  35.8319408  41.7159408  77.8330000
  34.6889408  42.5859408  77.3550000  34.4699408  36.9909408  81.0950000
  34.3759408  36.7169408  80.1820000  34.4599408  37.9469408  81.0610000
  46.7989408  38.8369408  81.9130000  46.1259408  38.2629408  81.5470000
  47.3839408  38.2479408  82.3890000  47.3339408  31.3149408  77.3720000
  47.1459408  32.1649408  77.7700000  46.5919408  30.7639408  77.6200000
  34.3569408  54.6489408  73.1330000  35.1819408  55.0809408  72.9100000
  33.8739408  55.2999408  73.6410000  36.0859408  44.8579408  71.4430000
  35.4669408  45.3769408  70.9300000  35.9959408  45.1919408  72.3360000
  43.4409408  46.1729408  68.5040000  43.3789408  45.9409408  67.5780000
  42.7799408  46.8539408  68.6260000  38.5019408  34.1379408  68.6120000
  38.8629408  34.4539408  67.7840000  38.9809408  33.3279408  68.7890000
  39.2219408  59.9579408  79.5540000  39.1209408  59.3189408  78.8490000
  39.7729408  60.6449408  79.1780000  35.8979408  56.1729408  75.7840000
  34.9769408  56.4009408  75.6590000  36.2559408  56.1269408  74.8980000
  34.1719408  38.0399408  66.5580000  33.5999408  38.3309408  67.2680000
  34.3229408  38.8259408  66.0330000  50.9309408  38.1219408  77.8530000
  50.4899408  38.4399408  78.6410000  51.2959408  38.9089408  77.4480000
  33.5469408  59.1949408  74.3880000  33.4529408  58.7309408  73.5560000
  34.0779408  59.9629408  74.1760000  37.6459408  45.5889408  60.5610000
  38.1379408  44.9059408  61.0160000  38.1499408  46.3889408  60.7110000
  39.7719408  32.8839408  65.6410000  40.6209408  32.7349408  66.0590000
  39.7999408  32.3549408  64.8440000  39.0259408  46.3989408  75.6100000
  38.7289408  46.0099408  76.4320000  38.4029408  46.0809408  74.9560000
  54.9449408  40.7089408  82.4340000  54.4059408  40.1399408  82.9830000
  54.3479408  41.3989408  82.1430000  42.9919408  36.0789408  80.9050000
  43.2669408  36.9929408  80.8340000  43.4549408  35.7489408  81.6750000
  49.7759408  47.0209408  66.7930000  49.6259408  47.7959408  66.2530000
  49.1299408  47.0889408  67.4960000  54.9269408  45.3199408  69.5870000
  55.3159408  44.5869408  70.0650000  55.3279408  45.2809408  68.7190000
  35.7419408  41.5499408  72.2860000  35.5099408  41.7689408  73.1890000
  36.5849408  41.9799408  72.1450000  59.0709408  32.3679408  73.5800000
  59.1899408  32.7229408  74.4610000  59.9599408  32.2269408  73.2550000
  45.3469408  37.8619408  73.5700000  45.5059408  37.1419408  72.9600000
  46.2199408  38.1279408  73.8590000  43.9419408  57.7469408  71.2050000
  43.6119408  57.6369408  72.0970000  43.2129408  58.1429408  70.7270000
  34.0809408  40.9719408  70.1910000  33.3579408  41.5829408  70.3280000
  34.6869408  41.1519408  70.9110000  32.4699408  32.2689408  69.4860000
  31.9209408  33.0069408  69.2190000  31.8819408  31.5139408  69.4670000
  33.0199408  46.0899408  71.5960000  32.9749408  46.1599408  72.5500000
  33.1089408  46.9939408  71.2930000  42.5739408  44.1909408  76.7410000
  42.6879408  43.7449408  75.9010000  43.3929408  44.6689408  76.8720000
  39.4949408  45.9309408  63.8740000  39.7659408  45.7989408  64.7830000
  39.9059408  46.7569408  63.6190000  38.0449408  48.2839408  77.2700000
  37.8129408  47.5769408  77.8720000  38.2419408  47.8409408  76.4450000
  38.0199408  31.0509408  74.0630000  38.1869408  31.8039408  73.4960000
  38.5849408  31.1939408  74.8240000  42.3299408  53.4389408  64.0320000
  41.5709408  52.9229408  63.7610000  43.0749408  53.0059408  63.6160000
  33.8559408  58.2669408  66.1100000  33.5329408  59.1219408  65.8250000
  34.7399408  58.4389408  66.4320000  32.1229408  52.1309408  77.8600000
  32.8419408  51.8089408  77.3180000  32.3069408  53.0629408  77.9750000
  48.9909408  38.3469408  65.9690000  49.9089408  38.3779408  66.2400000
  48.8449408  37.4349408  65.7200000  35.8029408  46.0779408  64.3120000
  36.5949408  45.6419408  63.9980000  35.6179408  45.6609408  65.1540000
  45.6349408  41.6509408  63.7230000  46.4549408  41.1739408  63.8460000
  45.4639408  42.0589408  64.5730000  43.6209408  45.0579408  71.2560000
  42.8359408  45.3699408  71.7060000  43.5009408  45.3309408  70.3470000
  36.7349408  40.4089408  76.9120000  37.6709408  40.2119408  76.8740000
  36.3309408  39.5979408  77.2210000  39.1019408  49.7299408  82.1000000
  39.8669408  49.3959408  81.6300000  39.3469408  50.6199408  82.3550000
  38.8879408  50.4159408  61.5990000  38.2829408  49.7779408  61.9770000
  38.7719408  51.2019408  62.1330000  43.4439408  30.5639408  65.1250000
  44.2609408  30.5429408  65.6220000  43.7179408  30.5099408  64.2090000
  38.1309408  47.3219408  69.6840000  38.1119408  48.2399408  69.4110000
  37.9969408  47.3509408  70.6310000  41.8609408  38.8709408  60.8180000
  41.4729408  39.7019408  60.5460000  42.8049408  39.0259408  60.7920000
  44.0549408  50.7059408  79.8650000  43.1819408  50.5199408  80.2090000
  44.1139408  50.1809408  79.0660000  38.7819408  44.8269408  70.5120000
  37.8989408  44.6719408  70.8490000  38.7299408  45.6859408  70.0920000
  55.7759408  45.5769408  75.5950000  56.5949408  45.4519408  75.1160000
  55.8309408  44.9639408  76.3280000  44.7319408  35.0299408  66.7360000
  45.2879408  34.2539408  66.6670000  45.2679408  35.6689408  67.2060000
  44.8019408  45.4929408  76.8610000  44.9129408  46.3009408  76.3600000
  45.6729408  45.3059408  77.2110000  57.4529408  42.4809408  72.6510000
  56.9679408  41.6609408  72.7380000  58.3159408  42.2169408  72.3320000
  49.8039408  40.9529408  68.8190000  50.7069408  41.2619408  68.7410000
  49.2889408  41.5889408  68.3220000  43.6759408  42.0399408  68.3110000
  42.9579408  42.4469408  68.7970000  43.3909408  41.1369408  68.1740000
  34.4319408  29.9699408  69.1520000  34.9539408  30.3289408  69.8690000
  33.7079408  30.5879408  69.0490000  33.1979408  45.2869408  67.9950000
  32.5999408  45.4139408  67.2590000  32.7259408  44.7069408  68.5910000
  43.4919408  40.2479408  75.4210000  44.1179408  40.9619408  75.5410000
  44.0109408  39.5349408  75.0460000  58.8019408  36.7519408  75.1170000
  58.5949408  36.3399408  74.2790000  57.9779408  37.1509408  75.3980000
  36.3509408  42.5299408  80.8020000  35.7639408  42.6359408  80.0530000
  36.8079408  43.3679408  80.8690000  32.1939408  32.4329408  75.0200000
  31.9859408  32.0149408  74.1840000  32.7589408  33.1699408  74.7850000
  50.3539408  31.1919408  74.3940000  51.2449408  31.0649408  74.0680000
  50.3279408  32.1089408  74.6690000  42.9529408  48.1909408  64.7110000
  42.8259408  48.4779408  65.6150000  43.8859408  48.3269408  64.5450000
  41.2079408  43.2309408  69.6310000  41.4929408  43.1859408  70.5430000
  40.4689408  43.8389408  69.6400000  35.2889408  46.5969408  61.2440000
  36.1979408  46.4009408  61.4730000  35.0949408  46.0109408  60.5130000
  35.9609408  31.2959408  70.8390000  36.7089408  31.8909408  70.8830000
  35.2019408  31.8499408  71.0230000  44.0369408  39.3019408  70.0320000
  43.0859408  39.2279408  69.9500000  44.3769408  38.5189408  69.5980000
  43.8409408  45.9929408  79.9150000  43.3829408  45.6059408  79.1690000
  44.1529408  46.8389408  79.5910000  47.9259408  43.8949408  74.1400000
  46.9729408  43.9149408  74.2200000  48.2449408  44.1439408  75.0080000
  47.9639408  34.7779408  60.3340000  47.0519408  35.0459408  60.4500000
  48.1979408  34.3589408  61.1630000  36.0819408  41.7559408  63.1260000
  35.2619408  42.2489408  63.0890000  36.7199408  42.3779408  63.4750000
  50.7849408  41.9599408  77.6010000  51.3309408  41.2469408  77.2700000
  50.9109408  42.6709408  76.9720000  46.0959408  40.7469408  69.5820000
  45.3069408  40.3579408  69.9590000  46.3329408  40.1619408  68.8630000
  41.8799408  41.9409408  63.1400000  41.5959408  41.9629408  64.0530000
  42.2839408  41.0799408  63.0340000  40.6029408  48.1769408  72.3180000
  39.6709408  48.0139408  72.4610000  40.6839408  49.1309408  72.3230000
  46.8019408  50.5669408  75.9690000  47.5409408  49.9729408  75.8380000
  46.7199408  51.0359408  75.1380000  36.3819408  33.8779408  66.2780000
  36.8239408  34.1609408  67.0780000  36.7769408  34.4079408  65.5850000
  47.8219408  40.6709408  84.7140000  47.0509408  40.2079408  84.3860000
  48.5589408  40.2549408  84.2680000  50.9929408  46.8169408  61.4860000
  51.3499408  47.6909408  61.3270000  50.4049408  46.9299408  62.2320000
  57.1529408  43.0869408  76.5300000  57.5009408  42.5009408  77.2020000
  56.4709408  42.5749408  76.0950000  58.4819408  40.9349408  69.6410000
  58.8959408  41.1749408  70.4700000  58.9019408  41.4979408  68.9910000
  44.8989408  56.5689408  68.8670000  44.8359408  56.8249408  69.7880000
  44.8469408  55.6129408  68.8800000  36.4319408  39.2409408  69.6680000
  35.6539408  39.7959408  69.6110000  36.1929408  38.4429408  69.1960000
  47.9739408  40.1959408  64.3400000  48.5639408  40.9399408  64.4650000
  48.2259408  39.5729408  65.0210000  44.5639408  41.3319408  72.5050000
  45.3129408  41.9219408  72.4160000  44.8419408  40.5249408  72.0710000
  35.8949408  49.3489408  70.4970000  35.2319408  49.5939408  71.1420000
  35.4229408  48.8129408  69.8600000  40.5329408  34.8369408  71.0850000
  40.4469408  35.5079408  70.4070000  41.3799408  35.0149408  71.4930000
  38.0019408  43.8009408  64.2870000  38.6839408  44.4149408  64.0160000
  37.9259408  43.9279408  65.2330000  38.5919408  50.0079408  71.6570000
  37.6919408  49.6829408  71.6220000  38.5009408  50.9549408  71.7650000
  38.5059408  59.5499408  64.7200000  39.2599408  59.8159408  64.1930000
  38.6619408  59.9459408  65.5770000  34.0379408  57.2559408  69.9530000
  34.9729408  57.0479408  69.9550000  33.9999408  58.1869408  69.7350000
  47.8569408  35.7969408  66.3200000  48.7739408  35.6119408  66.1180000
  47.3679408  35.4069408  65.5960000  54.8209408  37.4299408  68.6100000
  54.9309408  36.7309408  67.9650000  55.4989408  38.0679408  68.3900000
  39.6499408  41.8419408  67.8760000  40.4039408  42.2779408  68.2730000
  39.2779408  41.3139408  68.5820000  47.8409408  41.3329408  81.0730000
  47.5779408  40.4969408  81.4570000  47.0239408  41.8229408  80.9800000
  46.4069408  33.6289408  79.0480000  47.1099408  34.2789408  79.0450000
  46.1969408  33.5069408  79.9740000  41.6449408  38.1269408  83.6070000
  41.9199408  37.4939408  84.2710000  41.9309408  38.9729408  83.9510000
  48.3389408  38.6359408  77.0160000  48.1949408  39.4509408  77.4970000
  49.2549408  38.4159408  77.1850000  37.8239408  39.7049408  61.9020000
  38.6989408  39.3949408  62.1340000  37.3699408  39.7939408  62.7400000
  43.4879408  38.3599408  77.7820000  42.5719408  38.4729408  78.0380000
  43.7179408  39.1799408  77.3450000  57.1329408  43.4899408  66.5760000
  56.2129408  43.7239408  66.4540000  57.5309408  44.2739408  66.9540000
  35.3919408  39.8369408  81.5440000  34.4879408  40.0839408  81.7380000
  35.8819408  40.6569408  81.5990000  45.6989408  43.6459408  81.5090000
  44.9289408  44.2119408  81.4530000  45.7449408  43.3939408  82.4310000
  35.3759408  35.8509408  64.5400000  35.9379408  36.5929408  64.3170000
  35.1269408  36.0039408  65.4520000  51.4999408  50.8909408  81.6630000
  51.5299408  51.8449408  81.5890000  51.2169408  50.5929408  80.7990000
  46.1989408  42.7839408  84.3270000  46.9519408  42.3809408  84.7590000
  45.5079408  42.1229408  84.3830000  50.3079408  42.6819408  81.5200000
  49.5659408  42.7069408  82.1230000  50.0339408  43.2229408  80.7790000
  53.5869408  41.2759408  63.3410000  52.6949408  41.6219408  63.3230000
  54.1119408  41.9439408  62.9000000  37.8799408  56.0279408  83.7110000
  38.5289408  56.2299408  83.0370000  37.0729408  55.8609408  83.2240000
  48.4169408  44.7709408  80.7260000  48.8399408  45.1919408  81.4750000
  47.5249408  44.5919408  81.0240000  44.9759408  45.1649408  83.9550000
  45.6309408  45.7189408  83.5300000  45.4869408  44.4979408  84.4130000
  50.1269408  47.4139408  77.2570000  50.8569408  48.0169408  77.1180000
  50.2649408  47.0689408  78.1390000  47.7229408  39.0149408  74.5310000
  48.2079408  39.8399408  74.5330000  47.7629408  38.7109408  75.4380000
  47.0589408  34.2909408  63.6940000  47.3229408  33.4279408  64.0130000
  46.3329408  34.1129408  63.0950000  42.1429408  43.0499408  83.4810000
  42.7959408  43.1569408  82.7890000  41.8279408  43.9369408  83.6530000
  39.2999408  34.7489408  76.6790000  38.4779408  34.7659408  76.1890000
  39.0309408  34.7099408  77.5970000  40.2849408  39.8869408  72.5980000
  40.8409408  39.1149408  72.4900000  40.1829408  39.9779408  73.5460000
  58.8309408  37.2719408  62.2880000  58.8699408  36.9779408  63.1980000
  59.5399408  36.7969408  61.8530000  47.8369408  35.8009408  78.3520000
  48.7399408  35.6199408  78.0890000  47.7859408  36.7559408  78.3950000
  42.3099408  47.8379408  78.4750000  41.5999408  47.7869408  77.8350000
  42.9599408  48.4099408  78.0670000  51.5769408  40.0929408  73.5580000
  50.8019408  40.5149408  73.9290000  51.6999408  40.5189408  72.7100000
  35.6739408  53.6199408  60.0820000  36.0949408  53.8689408  60.9050000
  36.3839408  53.2649408  59.5480000  33.0279408  48.2679408  61.4330000
  33.1569408  49.2159408  61.4620000  33.8729408  47.9189408  61.1520000
  35.6639408  38.1749408  78.2520000  36.2629408  37.8789408  78.9380000
  35.1889408  37.3859408  77.9920000  35.9109408  36.2639408  83.1760000
  35.8639408  35.3079408  83.1610000  35.2579408  36.5469408  82.5370000
  33.5549408  42.7819408  63.2750000  32.7219408  42.4139408  63.5720000
  33.4619408  43.7249408  63.4110000  50.1159408  33.8369408  75.0270000
  50.6079408  34.5009408  74.5440000  49.2639408  33.8059408  74.5920000
  39.1499408  59.6889408  82.5040000  39.9349408  60.2339408  82.5540000
  39.1679408  59.3219408  81.6200000  39.0229408  40.0999408  83.4030000
  38.3649408  40.6929408  83.7660000  38.5369408  39.3039408  83.1870000
  32.6359408  39.1879408  72.6550000  32.1249408  39.8089408  73.1730000
  31.9839408  38.6069408  72.2650000  40.1199408  31.7629408  63.4120000
  39.5699408  31.8339408  62.6310000  40.9739408  32.0939408  63.1340000
  54.7679408  36.0699408  77.1460000  53.8289408  36.0299408  76.9640000
  55.1819408  35.7409408  76.3480000  35.1569408  41.4689408  75.1180000
  34.3929408  41.0489408  75.5120000  35.9069408  41.0229408  75.5130000
  46.3049408  47.8459408  78.6500000  46.4699408  48.5339408  78.0040000
  46.6669408  47.0539408  78.2540000  41.4229408  31.4139408  82.3640000
  41.7979408  31.2949408  83.2370000  42.1729408  31.6199408  81.8060000
  34.3739408  32.0349408  82.5920000  35.0449408  32.5869408  82.9950000
  33.7539408  32.6539408  82.2080000  37.8019408  46.5439408  67.0640000
  37.6149408  45.6139408  67.1890000  37.8329408  46.9049408  67.9500000
  42.7309408  42.2139408  78.9580000  42.2289408  41.4239408  78.7610000
  42.6519408  42.7509408  78.1690000  37.4109408  38.2469408  82.5390000
  37.0039408  37.3889408  82.6570000  36.8979408  38.6629408  81.8460000
  48.8269408  33.5309408  82.3500000  48.8589408  32.6169408  82.6340000
  49.3369408  33.5479408  81.5400000  43.0339408  44.4019408  63.2410000
  43.4299408  44.6769408  62.4150000  42.6019408  43.5729408  63.0360000
  44.6579408  31.6439408  84.3280000  45.2989408  31.5509408  85.0330000
  43.8909408  32.0299408  84.7510000  39.2199408  40.8319408  80.8010000
  38.2959408  40.9889408  80.6070000  39.2279408  40.5439408  81.7140000
  38.1889408  47.1529408  83.5900000  39.0689408  47.0679408  83.9560000
  37.9749408  48.0809408  83.6910000  37.2109408  38.0059408  65.3860000
  36.6419408  38.7579408  65.5510000  37.9689408  38.1489408  65.9520000
  60.1159408  38.1649408  71.4220000  60.1929408  37.2509408  71.1470000
  59.2939408  38.4639408  71.0340000  51.0649408  39.6399408  62.0140000
  51.5329408  39.0169408  62.5690000  51.5449408  39.6309408  61.1850000
  34.8949408  48.8529408  66.4910000  35.2919408  49.6979408  66.7040000
  35.4089408  48.5259408  65.7530000  30.8779408  59.1329408  61.2170000
  31.1779408  59.6449408  60.4660000  31.0379408  58.2229408  60.9670000
  36.9089408  34.5699408  75.4710000  36.4269408  35.1219408  74.8560000
  36.2819408  34.3849408  76.1700000  46.1519408  46.8349408  66.9130000
  45.4469408  46.5409408  66.3350000  45.7099408  47.0769408  67.7270000
  45.4429408  30.1609408  73.2290000  46.1079408  29.5109408  73.4580000
  45.5879408  30.8799408  73.8430000  54.0269408  49.3799408  81.4100000
  54.2849408  48.4959408  81.6720000  53.1719408  49.5119408  81.8210000
  44.3959408  48.1949408  70.7400000  44.3709408  48.1429408  71.6950000
  44.2869408  47.2889408  70.4480000  34.5679408  42.7609408  83.3450000
  34.5269408  43.7069408  83.4870000  34.8839408  42.6679408  82.4460000
  51.5419408  32.2789408  84.3060000  51.1949408  32.1159408  83.4290000
  51.4429408  31.4439408  84.7630000  44.6329408  53.1429408  70.1660000
  44.8209408  53.6079408  69.3500000  44.7559408  52.2189408  69.9490000
  45.3159408  42.0549408  76.3340000  44.9349408  42.8129408  76.7780000
  46.1729408  41.9419408  76.7450000  52.2929408  47.8109408  83.8080000
  52.1829408  47.0259408  84.3450000  52.7159408  48.4419408  84.3890000
  39.7159408  47.2639408  60.6440000  40.4809408  46.8889408  60.2080000
  40.0779408  47.7609408  61.3780000  37.2109408  41.8149408  84.3940000
  36.3699408  42.1359408  84.0660000  37.5599408  42.5409408  84.9100000
  30.1669408  38.8079408  80.3710000  29.8829408  38.0049408  80.8070000
  29.9809408  39.5029408  81.0020000  41.3649408  39.9299408  78.7550000
  40.7509408  39.2719408  78.4300000  41.2129408  39.9549408  79.7000000
  44.3869408  50.9349408  61.0510000  43.5169408  51.2199408  60.7720000
  44.8489408  50.7409408  60.2360000  40.7769408  39.9669408  75.3550000
  41.7099408  40.1599408  75.2610000  40.7469408  39.1889408  75.9110000
  49.8279408  45.7489408  73.0870000  50.5869408  45.7009408  73.6680000
  49.2939408  44.9909408  73.3260000  58.4329408  31.3169408  77.7720000
  58.3759408  30.3929408  78.0160000  58.3789408  31.7879408  78.6040000
  46.9629408  46.6139408  82.6300000  46.8069408  47.5369408  82.8310000
  47.8629408  46.5879408  82.3060000  56.9299408  41.9079408  61.8610000
  56.9209408  42.4829408  62.6270000  57.6339408  41.2839408  62.0360000
  45.8339408  33.3109408  61.4930000  46.3929408  32.5349408  61.4550000
  45.4889408  33.4019408  60.6050000  30.8749408  33.4179408  83.9600000
  30.5559408  32.5409408  83.7490000  31.6379408  33.5389408  83.3940000
  43.8929408  49.7199408  77.2500000  43.8199408  50.5249408  76.7370000
  44.7049408  49.3139408  76.9450000  40.5189408  37.1779408  75.9270000
  40.5439408  36.3239408  76.3590000  40.1409408  36.9999408  75.0660000
  45.9109408  57.6449408  80.9300000  45.4609408  56.9469408  80.4540000
  45.2979408  57.8989408  81.6190000  47.6369408  60.0739408  82.6510000
  47.4279408  59.3739408  82.0330000  47.3079408  59.7569408  83.4920000
  37.9469408  37.0969408  79.7360000  37.9239408  36.1409408  79.7090000
  38.7869408  37.3059408  80.1460000  46.8989408  59.9439408  65.6780000
  46.7499408  59.2089408  66.2740000  46.6159408  59.6199408  64.8230000
  39.8299408  57.2289408  65.4010000  38.9329408  57.4469408  65.1470000
  40.3679408  57.5429408  64.6740000  31.1219408  36.0539408  69.6410000
  30.6489408  36.3209408  68.8530000  31.9209408  36.5809408  69.6320000
  41.1519408  52.9069408  80.7830000  41.1849408  51.9589408  80.9060000
  40.5209408  53.0349408  80.0740000  41.0869408  55.7069408  67.3250000
  40.8939408  56.1889408  68.1280000  40.7599408  56.2699408  66.6230000
  32.6749408  48.7829408  70.9760000  33.1839408  49.3299408  71.5740000
  33.0549408  48.9529408  70.1140000  43.9669408  45.5319408  65.7910000
  44.1179408  44.5939408  65.6770000  43.3829408  45.7699408  65.0710000
  32.1679408  34.6769408  72.0900000  31.6919408  35.0179408  71.3330000
  31.8439408  35.1909408  72.8290000  39.7219408  58.0699408  68.6160000
  39.4219408  58.0619408  67.7080000  39.1469408  58.6979408  69.0530000
  41.7279408  50.3879408  81.2710000  41.6209408  49.5149408  80.8940000
  42.3419408  50.2629408  81.9960000  58.0529408  55.8899408  72.2050000
  58.2489408  56.7309408  72.6180000  57.0989408  55.8779408  72.1250000
  43.8599408  36.7389408  62.4700000  43.0679408  37.2019408  62.1940000
  43.5509408  36.0939408  63.1060000  34.9999408  59.5199408  78.2440000
  35.1339408  59.6689408  79.1800000  34.6149408  60.3359408  77.9240000
  40.5059408  49.8669408  66.1100000  39.8559408  49.5139408  65.5030000
  39.9949408  50.3779408  66.7380000  43.0909408  35.1259408  64.6640000
  43.6829408  35.1169408  65.4160000  42.3979408  34.5079408  64.8970000
  33.3269408  54.6049408  79.3680000  34.2059408  54.2289408  79.3230000
  33.4169408  55.4729408  78.9750000  30.0379408  51.4779408  64.6990000
  30.9309408  51.1549408  64.5830000  29.4899408  50.8369408  64.2450000
  45.7609408  55.8819408  64.7460000  45.6409408  55.0999408  64.2060000
  44.9199408  55.9989408  65.1890000  44.2179408  50.3289408  73.1910000
  44.4609408  51.2159408  72.9250000  45.0449408  49.9189408  73.4450000
  47.6079408  51.4719408  81.4500000  47.1129408  52.1989408  81.8280000
  47.2049408  50.6879408  81.8230000  42.8429408  54.9729408  81.9030000
  42.4879408  54.2539408  81.3800000  43.3269408  55.5089408  81.2750000
  34.6779408  52.4899408  76.5850000  35.2769408  53.2359408  76.6160000
  35.2109408  51.7439408  76.8610000  35.7979408  51.3969408  66.7650000
  36.4539408  51.7799408  67.3470000  34.9819408  51.4349408  67.2640000
  47.4849408  57.6719408  67.7400000  46.6389408  57.2889408  67.9700000
  47.8719408  57.0489408  67.1250000  32.3099408  48.7869408  65.5240000
  31.6629408  48.6259408  66.2120000  33.1549408  48.6519408  65.9530000
  44.3059408  58.7819408  67.3720000  44.7559408  58.1469408  67.9280000
  43.9669408  58.2639408  66.6420000  54.3189408  54.7159408  74.1060000
  54.8969408  53.9829408  73.8980000  54.5489408  55.3919408  73.4680000
  36.4959408  48.9039408  62.3800000  35.9039408  49.5189408  61.9470000
  35.9969408  48.0889408  62.4350000  46.4369408  49.0669408  81.2430000
  46.5039408  48.3559408  80.6060000  45.6939408  49.5899408  80.9420000
  37.2649408  53.0889408  63.3920000  37.5729408  53.8519408  62.9040000
  37.6459408  53.1919408  64.2640000  40.3759408  53.4779408  77.1180000
  39.6279408  53.2069408  77.6500000  40.5139408  52.7509408  76.5100000
  45.4449408  55.1009408  74.0140000  46.2459408  55.2109408  73.5020000
  45.0809408  54.2679408  73.7140000  39.1669408  35.4379408  65.7480000
  38.8509408  35.6709408  64.8750000  39.4189408  34.5179408  65.6750000
  34.2729408  50.1469408  72.5690000  33.8439408  50.9559408  72.8460000
  35.0339408  50.0699408  73.1450000  33.2469408  45.4839408  63.2100000
  33.6359408  46.1419408  62.6340000  33.7999408  45.4919408  63.9910000
  34.1789408  47.7809408  68.9290000  34.2309408  48.1619408  68.0530000
  33.5919408  47.0319408  68.8310000  41.1639408  59.3629408  74.0990000
  41.9599408  59.0219408  74.5070000  40.8289408  60.0059408  74.7250000
  41.2709408  59.4239408  60.7540000  41.1439408  59.1009408  59.8620000
  40.7259408  60.2099408  60.8040000  40.1639408  44.3359408  77.9330000
  39.7059408  43.4989408  77.8530000  40.9369408  44.2409408  77.3770000
  36.7049408  54.8669408  67.0240000  37.3139408  54.3839408  66.4660000
  36.0519408  55.2189408  66.4190000  30.7809408  47.7779408  63.0700000
  31.3749408  47.8329408  63.8190000  31.3059408  48.0689408  62.3250000
  36.9129408  56.0559408  73.0170000  36.7609408  56.9919408  73.1450000
  37.8609408  55.9539408  73.1010000  39.9689408  55.5049408  71.5150000
  40.0609408  56.2039408  72.1630000  39.5309408  55.9229408  70.7730000
  40.9059408  52.2719408  61.9450000  40.8709408  51.3879408  61.5790000
  40.4339408  52.8129408  61.3120000  30.6149408  44.7429408  62.4330000
  29.9859408  45.4539408  62.5520000  31.4659408  45.1429408  62.6100000
  45.8529408  53.8829408  67.9390000  45.9139408  53.7729408  66.9900000
  46.7569408  54.0099408  68.2250000  37.6779408  45.6369408  78.2270000
  37.3809408  45.6059408  79.1360000  38.4549408  45.0779408  78.2080000
  34.3649408  52.5619408  70.9050000  33.8259408  53.0119408  71.5560000
  35.0559408  53.1889408  70.6910000  41.6299408  53.2589408  71.2250000
  41.9139408  53.2529408  70.3110000  40.9499408  53.9319408  71.2610000
  33.3079408  52.3489408  74.1740000  33.6449408  53.1049408  73.6930000
  33.8179408  52.3319408  74.9840000  50.0859408  33.0319408  61.4180000
  50.4329408  32.3479408  60.8450000  49.2249408  32.7079408  61.6830000
  58.1769408  32.4219408  80.1510000  57.3749408  32.2089408  80.6290000
  58.4289408  33.2859408  80.4760000  49.2209408  58.9019408  69.3070000
  48.6819408  59.2899408  69.9960000  48.5979408  58.6619408  68.6210000
  30.7819408  46.6869408  75.9170000  30.1779408  46.2529408  76.5200000
  30.3069408  47.4619408  75.6180000  36.7389408  54.1779408  69.9850000
  36.8389408  55.0859408  70.2700000  36.8689408  54.2079408  69.0370000
  40.4329408  31.4439408  75.7220000  40.5989408  31.4719408  76.6650000
  40.7079408  32.3039408  75.4050000  33.3309408  49.3729408  78.2010000
  32.4419408  49.5659408  78.5000000  33.8949408  49.6769408  78.9110000
  56.3379408  38.5209408  74.7070000  55.9319408  39.3879408  74.7270000
  55.5999408  37.9109408  74.7000000  33.1059408  51.9459408  68.1800000
  33.4189408  52.7029408  68.6760000  32.1519408  52.0229408  68.2010000
  45.4369408  53.2539408  80.0090000  46.0059408  53.1119408  79.2530000
  45.0009408  52.4129408  80.1430000  37.0619408  51.4499408  69.2770000
  37.2629408  52.2119408  69.8210000  36.5489408  50.8769408  69.8470000
  42.0659408  58.8869408  69.7040000  41.2279408  58.5389408  69.3980000
  42.5209408  59.1529408  68.9050000  41.2699408  56.0949408  76.5260000
  41.8939408  56.0249408  75.8040000  41.2699408  55.2259408  76.9290000
  40.8659408  48.4719408  62.7640000  40.6719408  49.4039408  62.8690000
  41.5619408  48.2989408  63.3990000  43.6439408  30.4429408  61.8470000
  42.8629408  30.2199408  61.3410000  43.6489408  31.3999408  61.8730000
  33.1739408  30.5829408  64.5740000  34.1289408  30.6499408  64.5680000
  32.8779408  31.4079408  64.9580000  39.4209408  51.4549408  67.9740000
  38.8169408  51.4819408  68.7160000  40.2109408  51.8929408  68.2920000
  58.8549408  53.9129408  70.4620000  58.1329408  53.2899408  70.3720000
  58.5459408  54.5469408  71.1090000  39.8059408  45.8759408  81.7940000
  38.8959408  46.1509408  81.9020000  39.7489408  44.9669408  81.5000000
  37.9939408  51.3219408  74.6600000  38.8919408  51.3319408  74.9910000
  37.9779408  52.0019408  73.9870000  55.4639408  55.1709408  68.5830000
  54.5769408  55.4189408  68.3240000  55.9009408  54.9499408  67.7600000
  54.4759408  50.8279408  79.0240000  55.3199408  51.0919408  78.6570000
  54.7019408  50.2359408  79.7420000  42.9509408  31.3049408  72.5350000
  43.5739408  30.6049408  72.7320000  42.1069408  30.9639408  72.8300000
  59.8429408  56.8959408  68.9490000  59.2369408  56.1979408  68.6960000
  60.4319408  56.4839408  69.5810000  43.2739408  56.0209408  65.5640000
  43.0779408  55.8549408  66.4860000  42.5129408  55.6839408  65.0920000
  43.9679408  53.1959408  72.7510000  43.0609408  53.1179408  72.4530000
  44.4749408  53.3119408  71.9480000  37.9659408  53.2009408  84.6000000
  38.6309408  52.7009408  84.1270000  37.9549408  54.0549408  84.1660000
  58.8189408  58.9629408  79.5480000  59.3499408  58.7979408  80.3270000
  57.9169408  58.8389408  79.8420000  37.1999408  32.1849408  79.7970000
  37.7519408  31.4189408  79.6400000  36.4489408  31.8439408  80.2840000
  46.6659408  42.2829408  61.1970000  46.1439408  43.0379408  60.9240000
  46.2319408  41.9649408  61.9890000  41.4439408  45.8639408  83.9440000
  42.0879408  46.3889408  83.4680000  40.7859408  45.6379408  83.2870000
  44.5009408  42.8519408  65.8720000  44.3729408  42.6739408  66.8040000
  43.6179408  42.8409408  65.5020000  40.8959408  49.7499408  69.9370000
  40.1039408  49.8069408  70.4710000  41.6099408  49.9329408  70.5480000
  49.0259408  44.6979408  65.6060000  49.1789408  45.5409408  66.0320000
  48.8219408  44.0999408  66.3250000  36.7689408  58.4729408  74.2330000
  37.3599408  59.2059408  74.4070000  35.9639408  58.6979408  74.6990000
  57.3529408  30.3099408  72.8330000  57.5099408  29.6729408  73.5300000
  57.9369408  31.0399408  73.0390000  42.1129408  48.3489408  67.7370000
  41.7449408  48.5769408  68.5910000  41.5649408  48.8179408  67.1070000
  54.6629408  49.5749408  72.4850000  54.9049408  48.8659408  73.0800000
  54.1909408  49.1409408  71.7740000  31.4539408  59.7109408  75.8930000
  31.4329408  60.6619408  76.0040000  32.2849408  59.5399408  75.4500000
  36.8329408  50.5419408  77.8900000  37.4509408  49.8449408  77.6710000
  36.2749408  50.1639408  78.5700000  55.2199408  44.8659408  61.3530000
  55.3179408  44.0859408  60.8060000  54.4369408  45.3009408  61.0120000
  48.8679408  57.6099408  63.3490000  49.7269408  57.3279408  63.6620000
  48.2529408  57.2769408  64.0020000  38.3579408  34.1779408  61.8600000
  38.4489408  34.8209408  62.5630000  37.5369408  33.7239408  62.0540000
  41.2019408  58.7629408  63.4690000  41.2119408  59.5939408  63.9450000
  41.6049408  58.9659408  62.6240000  36.1329408  53.5059408  80.1000000
  36.3269408  53.2889408  79.1880000  36.9599408  53.8419408  80.4480000
  40.2109408  58.4339408  71.9620000  41.0079408  58.2959408  71.4500000
  40.5229408  58.6039408  72.8510000  31.6809408  58.4499408  67.5820000
  32.3499408  57.9409408  67.1260000  30.8959408  57.9039408  67.5440000
  55.9239408  52.7609408  73.2040000  55.7279408  52.7439408  72.2670000
  56.0819408  51.8459408  73.4340000  49.3099408  56.6769408  74.0320000
  49.6109408  56.8749408  74.9190000  49.3619408  55.7229408  73.9680000
  33.3539408  54.7089408  69.0660000  33.7559408  55.5449408  69.3010000
  32.5179408  54.9489408  68.6650000  31.4129408  56.7549408  60.3960000
  32.1889408  57.0679408  59.9310000  31.2349408  55.8959408  60.0140000
  59.6089408  57.8679408  75.3230000  60.1049408  57.1339408  74.9590000
  60.2649408  58.5469408  75.4810000  52.3659408  44.6299408  68.6880000
  51.7399408  44.6659408  69.4110000  53.1379408  45.0919408  69.0160000
  31.5119408  49.0599408  73.6060000  30.8219408  49.4449408  73.0660000
  32.0049408  48.5029408  73.0030000  33.9449408  56.8669408  78.1460000
  33.7629408  56.8199408  77.2080000  34.4529408  57.6719408  78.2510000
  43.2799408  52.0519408  75.6120000  42.3279408  51.9589408  75.6370000
  43.5199408  51.8259408  74.7140000  42.9559408  51.3659408  66.3640000
  43.4859408  51.8059408  65.6990000  42.4029408  50.7609408  65.8690000
  33.4409408  36.1809408  61.9050000  34.0029408  36.8479408  61.5100000
  33.9759408  35.7989408  62.6010000  47.0119408  53.5979408  60.0990000
  47.4669408  54.3679408  60.4400000  46.1409408  53.9179408  59.8630000
  48.2589408  42.5979408  67.4360000  47.7069408  41.9699408  66.9700000
  47.6589408  43.0499408  68.0290000  30.1369408  33.5589408  65.8370000
  29.9919408  32.6449408  65.5950000  30.0729408  33.5669408  66.7920000
  56.3759408  53.1479408  82.1470000  55.9069408  53.8409408  81.6830000
  57.2419408  53.1299408  81.7400000  42.6159408  52.0489408  84.5270000
  42.7129408  51.7699408  85.4380000  43.1399408  51.4229408  84.0270000
  34.7479408  56.4299408  62.0810000  34.8309408  55.7089408  62.7050000
  33.9279408  56.8609408  62.3190000  39.2759408  56.4629408  74.7030000
  39.7309408  56.2569408  75.5190000  39.1089408  57.4049408  74.7520000
  53.3719408  59.3539408  76.9710000  53.3079408  58.3989408  76.9860000
  52.9949408  59.6059408  76.1290000  46.2559408  53.4489408  82.4580000
  45.9049408  53.5529408  81.5740000  45.4959408  53.5559408  83.0320000
  36.9949408  45.9949408  80.7340000  36.4209408  45.7369408  81.4560000
  36.9939408  46.9519408  80.7580000  46.4109408  57.9309408  76.0400000
  46.7929408  58.4529408  76.7440000  46.9819408  58.0879408  75.2870000
  44.1419408  54.1589408  84.0840000  43.6309408  53.3779408  84.2940000
  43.5819408  54.6599408  83.4910000  43.5379408  46.9969408  82.3460000
  44.1009408  46.3869408  82.8230000  43.4289408  46.5979408  81.4830000
  43.4829408  49.4799408  83.5240000  43.6019408  48.6709408  83.0260000
  44.1959408  49.4769408  84.1620000  35.5179408  50.8639408  60.6340000
  34.6129408  50.9029408  60.3240000  35.8689408  51.7369408  60.4600000
  44.6979408  55.7839408  79.6430000  44.8279408  55.7939408  78.6940000
  44.6369408  54.8559408  79.8670000  35.6269408  55.5319408  82.0670000
  36.1349408  55.9269408  81.3580000  35.2669408  54.7309408  81.6870000
  54.5209408  47.0009408  82.3890000  55.1209408  46.3069408  82.6620000
  53.6929408  46.7869408  82.8180000  40.6369408  51.0749408  75.7480000
  41.0509408  50.3259408  76.1760000  40.8889408  50.9959408  74.8280000
  44.6019408  58.8039408  83.5100000  45.1489408  58.3629408  84.1610000
  44.6489408  59.7299408  83.7450000  47.2359408  55.8399408  84.2300000
  47.9919408  55.7569408  83.6490000  46.6439408  55.1399408  83.9550000
  46.3829408  55.0279408  76.5230000  45.9809408  54.9789408  75.6560000
  46.6939408  55.9299408  76.5930000  29.8979408  55.6919408  82.9550000
  29.7849408  54.8959408  83.4740000  30.8379408  55.7319408  82.7780000
  38.7329408  55.2859408  62.7840000  39.4529408  55.3559408  62.1580000
  38.2929408  56.1349408  62.7390000  56.7709408  33.6649408  82.7270000
  56.7729408  32.8369408  83.2070000  57.3549408  34.2339408  83.2270000
  39.9189408  33.5539408  81.8240000  39.1149408  33.4609408  82.3350000
  40.5089408  32.8899408  82.1800000  38.4839408  42.6569408  72.7750000
  38.7579408  43.2109408  72.0450000  39.2489408  42.1129408  72.9640000
  34.8689408  52.0059408  64.4930000  35.4839408  52.3369408  63.8380000
  35.3879408  51.9349408  65.2950000  31.1839408  53.8679408  62.2820000
  31.7039408  53.3719408  61.6500000  31.6219408  53.7219408  63.1200000
  31.2759408  50.9209408  82.3260000  31.5259408  50.2529408  81.6880000
  31.9619408  51.5849408  82.2600000  37.4129408  56.2019408  80.0570000
  37.4249408  56.6489408  79.2110000  38.2419408  56.4469408  80.4690000
  51.6459408  55.8579408  79.2480000  51.8839408  55.4889408  78.3980000
  51.1379408  55.1669408  79.6750000  56.5009408  53.4099408  63.8900000
  57.2679408  53.2959408  63.3290000  56.1529408  54.2679408  63.6490000
  42.1069408  58.3369408  82.1520000  42.8629408  58.3479408  82.7390000
  41.9139408  59.2609408  81.9920000  36.9049408  59.6589408  84.4020000
  37.4049408  59.1249408  85.0190000  37.5369408  59.8999408  83.7250000
  45.8789408  32.1039408  81.6990000  45.5149408  31.9559408  82.5720000
  46.7829408  31.7959408  81.7610000  38.8949408  51.6709408  79.8570000
  38.2309408  51.5909408  79.1720000  38.9859408  50.7849408  80.2080000
  49.3409408  49.3989408  80.3370000  49.0289408  49.1119408  79.4790000
  48.5439408  49.5879408  80.8320000  43.0649408  31.5539408  80.0000000
  43.9649408  31.6039408  80.3230000  42.9399408  30.6309408  79.7800000
  40.1359408  52.0139408  83.1660000  40.2959408  52.4989408  82.3560000
  40.9959408  51.9489408  83.5810000  48.4869408  38.0279408  61.6070000
  49.1999408  38.3819408  62.1380000  48.0509408  38.7999408  61.2450000
  37.1399408  57.5469408  77.6840000  36.8289408  57.2759408  76.8200000
  36.5409408  58.2459408  77.9460000  45.7979408  58.7229408  63.2530000
  45.6619408  57.7969408  63.0530000  45.1299408  59.1799408  62.7420000
  39.0859408  31.1759408  61.1750000  38.4019408  30.5059408  61.1510000
  38.6729408  31.9539408  60.8020000  38.0329408  59.1679408  70.5370000
  38.6119408  58.8459408  71.2270000  37.5109408  59.8489408  70.9610000
  42.8329408  46.8609408  73.8650000  42.4649408  45.9809408  73.9370000
  42.1939408  47.3459408  73.3420000  35.5019408  30.1759408  80.8970000
  35.1519408  30.8029408  81.5300000  35.3639408  29.3209408  81.3060000
  44.6709408  37.7959408  65.3550000  45.3629408  37.6749408  64.7050000
  44.3999408  36.9069408  65.5840000  42.2429408  36.3459408  67.8770000
  43.0639408  35.9189408  67.6340000  41.5769408  35.9019408  67.3520000
  54.9609408  45.1169408  66.4150000  54.0719408  45.3439408  66.1410000
  55.4919408  45.8699408  66.1570000  49.3769408  37.5459408  72.7920000
  49.5639408  37.9789408  71.9590000  48.9799408  38.2279408  73.3340000
  59.9389408  42.9329408  80.1570000  59.2409408  43.5489408  79.9330000
  59.5489408  42.0699408  80.0180000  53.4369408  38.0999408  74.6000000
  53.0629408  38.4679408  73.7990000  53.0709408  37.2169408  74.6520000
  57.4789408  33.9939408  70.6530000  57.3369408  34.2939408  69.7560000
  57.7139408  33.0699408  70.5640000  53.8419408  37.9109408  71.1330000
  53.2649408  38.4849408  70.6300000  54.5029408  37.6239408  70.5030000
  54.1399408  31.3499408  70.9420000  53.2239408  31.4689408  71.1920000
  54.1099408  30.7419408  70.2040000  30.0609408  36.7279408  77.5830000
  30.7789408  37.3319408  77.7720000  29.7179408  37.0209408  76.7390000
  49.3879408  42.0239408  61.7080000  48.4449408  42.1189408  61.5730000
  49.5609408  41.0969408  61.5410000  48.6229408  34.8899408  72.5080000
  49.1929408  34.4829408  71.8550000  48.9969408  35.7609408  72.6440000
  58.2209408  53.3229408  74.8680000  57.5639408  53.4529408  74.1850000
  59.0359408  53.1649408  74.3900000  57.7609408  32.7849408  63.9490000
  58.2159408  32.0179408  63.6010000  57.0409408  32.9349408  63.3370000
  45.8699408  37.0169408  60.6600000  45.2029408  36.8519408  61.3270000
  46.4569408  37.6569408  61.0610000  55.9399408  35.4359408  74.7680000
  56.1589408  35.8389408  73.9280000  55.7629408  34.5199408  74.5560000
  55.4509408  36.9699408  65.4990000  54.8859408  36.2069408  65.3780000
  55.7639408  37.1789408  64.6180000  30.4629408  52.8909408  73.2580000
  30.2129408  51.9829408  73.0880000  31.3599408  52.8359408  73.5870000
  44.7979408  41.2589408  80.4950000  44.1209408  41.7319408  80.0110000
  45.3779408  41.9449408  80.8280000  48.4659408  53.8039408  69.1880000
  48.8379408  54.6159408  68.8460000  48.9149408  53.1109408  68.7040000
  46.7079408  37.0059408  63.8860000  47.1969408  37.5149408  63.2390000
  46.7849408  36.0999408  63.5860000  35.6159408  33.9159408  77.9620000
  36.1299408  33.4149408  78.5940000  35.1099408  33.2559408  77.4870000
  55.2969408  35.6169408  79.7390000  56.1719408  35.2819408  79.5430000
  54.9219408  35.8239408  78.8830000  40.5079408  37.1349408  80.9140000
  41.3479408  36.7929408  80.6060000  40.6289408  37.2549408  81.8560000
  35.4309408  38.9249408  73.3460000  34.5449408  38.8439408  73.6980000
  35.4069408  39.7229408  72.8170000  59.5329408  30.6999408  63.3760000
  60.1959408  30.7629408  62.6890000  59.1429408  29.8339408  63.2540000
  49.1209408  41.3209408  73.8360000  48.7309408  41.3989408  72.9650000
  48.7629408  42.0599408  74.3270000  53.4509408  46.6139408  77.9200000
  53.0099408  47.2459408  77.3520000  52.8429408  46.4799408  78.6470000
  31.2429408  55.3819408  71.0890000  31.8839408  54.7989408  70.6820000
  30.4409408  54.8619408  71.1370000  30.5589408  33.4369408  62.1060000
  30.9039408  33.9419408  61.3700000  29.6199408  33.3699408  61.9320000
  55.4529408  53.0009408  66.3470000  56.1639408  52.5919408  66.8410000
  55.8259408  53.1649408  65.4810000  49.8289408  42.1619408  64.8400000
  50.2879408  42.3219408  65.6640000  49.5549408  43.0299408  64.5450000
  55.5609408  41.1319408  75.4750000  55.1189408  40.5969408  76.1340000
  54.8589408  41.6419408  75.0700000  31.6959408  44.5629408  65.6540000
  31.0739408  44.5129408  64.9270000  31.7619408  43.6639408  65.9750000
  56.7429408  33.6139408  77.8620000  56.4659408  34.0829408  77.0750000
  56.0469408  32.9769408  78.0200000  51.6259408  49.4869408  61.2030000
  52.4039408  49.0829408  61.5860000  51.3859408  50.1789408  61.8190000
  59.2179408  53.7659408  65.8380000  59.3659408  54.3189408  65.0710000
  59.4309408  52.8809408  65.5410000  51.2669408  30.7559408  68.5830000
  51.3999408  31.0999408  69.4660000  50.5919408  30.0849408  68.6870000
  57.0209408  30.6149408  83.3560000  56.1119408  30.3729408  83.1770000
  57.4589408  29.7839408  83.5400000  57.0549408  50.3509408  73.5330000
  56.2059408  50.0659408  73.1960000  57.4329408  49.5649408  73.9270000
  53.3629408  35.0449408  71.8150000  53.7649408  35.8809408  71.5770000
  54.1039408  34.4649408  71.9930000  54.9759408  31.0289408  80.1130000
  54.6729408  31.3969408  79.2830000  54.4759408  31.4979408  80.7810000
  52.5319408  53.9129408  76.2690000  53.3199408  53.8259408  76.8050000
  52.8589408  54.0669408  75.3830000  56.3219408  37.4929408  83.9420000
  56.3019408  36.7529408  84.5480000  57.1049408  37.9849408  84.1900000
  30.1739408  41.8329408  71.6060000  30.4409408  41.6049408  72.4960000
  30.8999408  42.3529408  71.2630000  55.7369408  49.1459408  68.1800000
  54.8499408  49.1279408  68.5390000  56.1869408  48.4239408  68.6170000
  46.6539408  39.5689408  67.1000000  46.2859408  39.1019408  66.3490000
  47.5579408  39.2609408  67.1550000  48.3429408  55.7469408  66.0430000
  48.8659408  54.9999408  65.7510000  47.5969408  55.7659408  65.4440000
  34.7929408  55.8129408  65.2480000  34.3529408  56.6369408  65.4600000
  34.0799408  55.1949408  65.0880000  53.2419408  53.1659408  70.4920000
  52.9709408  53.7249408  69.7630000  52.5509408  52.5069408  70.5570000
  55.7379408  56.5139408  76.0000000  55.5399408  55.6189408  75.7260000
  54.8859408  56.8929408  76.2160000  30.0309408  36.3349408  67.2890000
  29.4529408  35.8939408  66.6650000  30.7089408  36.7369408  66.7450000
  35.4109408  31.6389408  74.1010000  36.3529408  31.5459408  73.9540000
  35.1199408  32.2449408  73.4200000  42.0409408  33.7889408  60.3090000
  41.4489408  34.5119408  60.1020000  42.7159408  33.8299408  59.6310000
  54.4599408  32.0869408  77.5660000  54.6979408  32.1839408  76.6440000
  53.9199408  31.2969408  77.5930000  38.5499408  34.3989408  79.4280000
  39.1569408  34.0959408  80.1040000  37.8149408  33.7869408  79.4750000
  51.2339408  31.7299408  71.0500000  51.0569408  31.7479408  71.9900000
  51.0979408  32.6329408  70.7630000  52.1169408  36.2239408  76.4610000
  51.5759408  36.8179408  76.9810000  51.6809408  36.1839408  75.6100000
  57.9949408  31.5439408  69.2960000  57.6689408  30.7739408  69.7610000
  57.5859408  31.4939408  68.4320000  34.1849408  49.2609408  75.5620000
  33.2749408  49.4589408  75.3410000  34.2369408  49.3929408  76.5080000
  51.5719408  46.0879408  79.4610000  51.2589408  46.5549408  80.2350000
  52.0279408  45.3219408  79.8100000  54.5889408  42.8039408  78.0590000
  55.3309408  42.2919408  77.7360000  54.9889408  43.5189408  78.5550000
  32.6959408  34.0899408  81.8710000  32.3059408  33.5869408  81.1560000
  32.9999408  34.8979408  81.4560000  59.8669408  52.4849408  83.7190000
  60.5199408  52.0109408  83.2050000  59.1229408  52.5889408  83.1250000
  52.9719408  59.7709408  66.6800000  52.3179408  60.1079408  67.2920000
  53.6439408  59.3789408  67.2390000  60.0319408  39.3559408  67.3470000
  59.0959408  39.2539408  67.5190000  60.1719408  38.9109408  66.5120000
  42.1399408  37.4559408  72.2220000  43.0799408  37.4309408  72.0430000
  41.9669408  36.6499408  72.7080000  52.2569408  42.3619408  71.4830000
  51.7519408  43.1539408  71.2990000  52.2079408  41.8529408  70.6740000
  57.9939408  38.9349408  78.7130000  58.8849408  38.7869408  79.0320000
  57.4419408  38.4079408  79.2910000  32.6369408  38.9269408  68.6340000
  33.0599408  39.1289408  69.4690000  31.7709408  39.3279408  68.7010000
  31.9669408  38.2519408  78.4270000  32.8179408  38.6559408  78.5950000
  31.4089408  38.5619408  79.1400000  57.5039408  35.9579408  72.6760000
  57.6349408  35.1329408  72.2080000  57.4329408  36.6169408  71.9850000
  36.0659408  33.5049408  63.3350000  35.7129408  34.3689408  63.5490000
  35.3759408  33.0859408  62.8200000  50.1629408  33.2489408  67.1740000
  50.7889408  32.6829408  67.6270000  49.4289408  33.3299408  67.7820000
  46.8479408  59.6619408  70.6200000  46.3209408  59.0759408  71.1630000
  46.2789408  59.8849408  69.8840000  35.8869408  40.2809408  65.3640000
  35.6359408  40.8369408  66.1020000  35.8729408  40.8659408  64.6070000
  52.0509408  57.8479408  81.3780000  52.2919408  57.3129408  80.6220000
  52.4079408  58.7149408  81.1820000  56.0049408  58.4509408  80.5770000
  55.3879408  57.8689408  80.1320000  55.6789408  59.3319408  80.3920000
  45.9519408  45.9449408  60.6750000  45.0699408  45.6069408  60.8280000
  46.3909408  45.2529408  60.1800000  52.1649408  37.7679408  68.6350000
  53.0789408  37.4839408  68.6030000  52.1279408  38.5239408  68.0490000
  54.3869408  40.8979408  67.2380000  54.6949408  41.3449408  68.0260000
  55.0989408  41.0059408  66.6070000  50.4669408  57.5979408  76.5020000
  50.0149408  58.4079408  76.7400000  49.9129408  56.9009408  76.8520000
  47.1799408  54.4859408  71.5940000  47.1339408  54.0919408  70.7230000
  47.8769408  55.1389408  71.5260000  57.1109408  37.9229408  70.7590000
  56.6699408  38.6599408  71.1820000  57.2859408  38.2279408  69.8680000
  54.4309408  38.2329408  60.1660000  54.9999408  38.8329408  59.6840000
  54.9499408  37.9689408  60.9260000  57.6649408  47.8339408  80.4340000
  57.0099408  47.9209408  81.1270000  57.7929408  48.7259408  80.1110000
  50.4459408  35.7249408  65.9510000  50.6899408  34.9389408  66.4390000
  51.2809408  36.0999408  65.6680000  34.0989408  47.2339408  80.9040000
  33.5579408  47.6299408  80.2210000  34.7849408  47.8809408  81.0720000
  53.0409408  55.6989408  67.7480000  52.2169408  56.1149408  67.4950000
  53.0589408  54.8799408  67.2530000  45.0709408  33.1099408  71.9730000
  45.9309408  32.7019408  71.8700000  44.5769408  32.4959408  72.5170000
  31.2549408  36.8109408  74.1630000  30.3669408  36.7379408  74.5100000
  31.5479408  37.6809408  74.4330000  31.2039408  48.3319408  68.1590000
  31.7869408  48.4599408  68.9080000  30.4139408  47.9419408  68.5330000
  40.8509408  48.0429408  80.5640000  41.5169408  47.8769408  79.8970000
  40.6929408  47.1879408  80.9640000  55.3289408  43.5029408  71.5810000
  55.0329408  44.2309408  72.1270000  56.1189408  43.1829408  72.0170000
  57.1119408  57.8559408  74.3000000  56.6299408  57.3489408  74.9530000
  58.0099408  57.8809408  74.6300000  54.7879408  32.1149408  65.8990000
  54.1839408  31.3719408  65.9120000  55.6579408  31.7159408  65.9040000
  49.4179408  45.1679408  76.0930000  50.2329408  44.6729408  76.0060000
  49.6999408  46.0539408  76.3210000  57.7659408  43.5989408  63.8470000
  57.7389408  43.8419408  64.7720000  57.9009408  44.4269408  63.3850000
  35.1689408  44.5189408  76.3780000  35.8409408  44.4369408  77.0540000
  34.4199408  44.9079408  76.8290000  54.5049408  33.7859408  68.3370000
  54.6659408  33.1259408  67.6630000  55.3689408  33.9629408  68.7110000
  57.8919408  45.9599408  61.8140000  57.0629408  45.4949408  61.6950000
  58.2699408  46.0039408  60.9360000  51.4209408  35.9589408  73.7260000
  50.7449408  36.4539408  73.2630000  52.0389408  35.6999408  73.0420000
  34.4059408  40.8699408  61.0480000  33.6999408  41.4429408  61.3470000
  35.1239408  41.0339408  61.6600000  47.9489408  47.1749408  71.2960000
  47.9059408  46.2389408  71.0990000  48.8179408  47.2979408  71.6800000
  55.4809408  41.9639408  69.4060000  55.1199408  42.5119408  70.1030000
  56.2799408  41.5939408  69.7810000  57.2379408  34.9699408  68.0610000
  57.3909408  35.8909408  68.2740000  57.5609408  34.8749408  67.1650000
  46.7859408  48.4209408  61.6810000  46.7219408  47.5299408  61.3370000
  47.4129408  48.8559408  61.1040000  52.8489408  43.5719408  79.9600000
  53.5609408  43.2709408  79.3950000  52.1069408  43.0129408  79.7290000
  53.2589408  30.4689408  74.2250000  53.7039408  29.7619408  73.7580000
  53.9489408  31.1049408  74.4120000  38.5139408  48.9249408  64.6940000
  38.4449408  47.9949408  64.9100000  37.8739408  49.0569408  63.9950000
  30.9149408  42.1979408  63.5130000  30.7669408  42.8599408  62.8380000
  30.2449408  41.5339408  63.3490000  46.2619408  35.6629408  71.8050000
  47.1559408  35.3529408  71.9450000  45.7269408  34.8699408  71.8260000
  55.2609408  32.5219408  75.1500000  56.1599408  32.1979408  75.2140000
  55.1129408  32.6349408  74.2110000  56.0369408  39.7699408  72.4210000
  56.3529408  39.1019408  73.0300000  55.0999408  39.8379408  72.6050000
  53.0209408  38.4339408  63.5050000  53.2149408  39.3699408  63.4500000
  53.4379408  38.1499408  64.3190000  48.3969408  31.7669408  64.5070000
  48.1719408  31.0319408  65.0770000  49.3529408  31.8069408  64.5340000
  59.4079408  50.4649408  72.4830000  58.5159408  50.4729408  72.8300000
  59.2959408  50.4509408  71.5330000  49.9099408  38.3669408  70.0660000
  49.9099408  39.2509408  69.6990000  50.6139408  37.9149408  69.6030000
  52.3429408  47.8229408  73.7280000  52.4789408  48.5569408  74.3260000
  51.4959408  47.9999408  73.3180000  48.5539408  48.9259408  84.6820000
  48.7939408  48.2999408  85.3660000  49.3529408  49.4279408  84.5250000
  30.9789408  41.7839408  66.4660000  30.8059408  41.5689408  65.5490000
  30.8379408  40.9619408  66.9360000  48.5449408  36.2349408  68.9460000
  48.6869408  36.3049408  68.0020000  48.8589408  37.0669408  69.2990000
  47.5829408  32.1169408  71.6990000  47.5359408  31.9249408  72.6360000
  47.4419408  31.2719408  71.2740000  53.0879408  36.0449408  62.2860000
  53.1179408  36.9629408  62.5550000  52.5769408  36.0479408  61.4770000
  49.4299408  59.0179408  60.8690000  50.3869408  59.0099408  60.8630000
  49.1899408  58.4979408  61.6360000  59.4029408  51.3029408  76.8030000
  59.1189408  52.1149408  76.3830000  60.2919408  51.4879408  77.1050000
  59.9999408  33.3119408  68.7350000  59.2879408  32.6869408  68.8720000
  59.6239408  34.1599408  68.9690000  37.9229408  30.9289408  67.0610000
  38.3859408  31.4039408  67.7510000  37.6119408  31.6119408  66.4670000
  56.0629408  36.2019408  62.8730000  56.7759408  36.4759408  62.2960000
  55.4759408  35.7009408  62.3070000  55.4119408  50.8149408  61.5320000
  55.4999408  50.9999408  60.5970000  56.2239408  50.3649408  61.7650000
  58.3659408  35.4669408  79.3010000  58.8039408  35.9929408  78.6320000
  58.0599408  34.6899408  78.8330000  50.9419408  34.3839408  77.7550000
  50.5819408  33.9059408  77.0080000  51.5239408  35.0359408  77.3640000
  59.4049408  39.7769408  61.2160000  59.7829408  39.6169408  60.3520000
  58.8879408  38.9919408  61.4010000  51.4199408  43.2069408  84.2540000
  51.6209408  42.3409408  84.6100000  51.2789408  43.0559408  83.3200000
  59.1759408  40.3779408  82.4850000  58.2839408  40.5879408  82.2080000
  59.0939408  40.1619408  83.4140000  57.5159408  41.6489408  78.8270000
  57.5849408  40.6959408  78.7670000  57.6049408  41.8379408  79.7610000
  58.1189408  43.0759408  83.9840000  58.7619408  42.6759408  84.5710000
  57.4529408  43.4369408  84.5690000  51.7639408  43.3609408  62.3840000
  51.7739408  43.7069408  61.4920000  50.9559408  42.8499408  62.4340000
  58.0309408  55.7699408  60.2010000  57.6519408  56.3839408  59.5710000
  58.7909408  56.2309408  60.5560000  32.9169408  40.2559408  82.9200000
  32.3259408  40.8239408  82.4250000  33.4999408  40.8599408  83.3800000
  51.1939408  34.9999408  84.4080000  50.3499408  35.2639408  84.7730000
  51.2559408  34.0639408  84.5980000  58.7599408  58.1839408  63.0480000
  58.8759408  57.2849408  63.3560000  59.4779408  58.3219408  62.4310000
  32.6489408  37.0719408  83.3300000  32.9159408  37.8839408  82.8980000
  32.1039408  36.6239408  82.6820000  52.4329408  54.4709408  60.8190000
  51.6569408  54.3989408  61.3750000  52.5059408  53.6149408  60.3970000
  57.0089408  37.7539408  80.9100000  57.1639408  37.5669408  81.8360000
  56.1749408  37.3249408  80.7160000  49.5569408  49.2589408  64.7920000
  49.8279408  48.5009408  64.2750000  49.5719408  49.9889408  64.1730000
  56.9399408  40.5709408  65.5480000  57.2969408  41.4359408  65.7460000
  57.5429408  40.2049408  64.9000000  52.1869408  37.3489408  83.2340000
  52.6329408  37.2299408  82.3960000  51.9849408  36.4599408  83.5270000
  53.0549408  56.8219408  75.9560000  52.1179408  56.8199408  76.1500000
  53.1779408  56.0819408  75.3610000  56.0829408  44.9759408  82.9120000
  56.8299408  44.5689408  82.4730000  56.1679408  44.7089408  83.8270000
  31.7139408  34.7479408  64.2270000  31.3929408  34.3309408  63.4270000
  31.0859408  34.4889408  64.9010000  56.7119408  58.8939408  61.2240000
  57.5319408  58.5429408  61.5710000  56.3319408  59.3829408  61.9540000
  54.2559408  53.5429408  78.3680000  54.2759408  52.7569408  78.9150000
  55.1489408  53.6239408  78.0320000  54.1759408  48.5089408  61.7660000
  54.5339408  49.3739408  61.5650000  54.8279408  48.1069408  62.3410000
  55.2449408  45.1359408  79.2390000  54.6809408  45.3399408  79.9860000
  55.0279408  45.8009408  78.5860000  57.8889408  32.9389408  60.7890000
  57.1389408  32.3659408  60.9500000  57.5709408  33.8159408  61.0000000
  47.5889408  35.9449408  81.8650000  47.9269408  35.0509408  81.9150000
  48.2399408  36.4199408  81.3480000  50.0679408  36.6019408  80.6770000
  50.4109408  35.7399408  80.4420000  50.8469408  37.1369408  80.8290000
  59.4139408  33.1659408  76.0720000  59.2369408  32.3849408  76.5970000
  58.9069408  33.8589408  76.4960000  47.8799408  37.6249408  84.1220000
  47.7579408  36.6759408  84.0920000  47.0159408  37.9709408  84.3480000
  54.0009408  34.7069408  65.0710000  53.8849408  34.5229408  64.1390000
  54.2479408  33.8649408  65.4530000  58.6979408  34.9809408  83.9730000
  59.2289408  35.6649408  84.3820000  59.2709408  34.2149408  83.9480000
  39.8899408  41.8059408  77.1790000  40.2009408  41.2239408  77.8720000
  40.1229408  41.3559408  76.3660000  32.2539408  45.9619408  84.7120000
  31.4929408  45.4689408  84.4070000  33.0069408  45.4519408  84.4130000
  50.0029408  39.2039408  83.4090000  50.8009408  38.6759408  83.4560000
  49.3039408  38.6049408  83.6730000  53.6059408  42.7209408  74.1930000
  53.3069408  42.6279408  73.2890000  53.8659408  43.6389408  74.2670000
  53.0969408  37.0939408  80.7320000  53.5719408  37.7899408  80.2780000
  53.5829408  36.2959408  80.5220000  51.2829408  34.2129408  70.2370000
  52.1709408  34.4309408  70.5200000  50.9569408  35.0169408  69.8310000
  35.2779408  41.5559408  67.5480000  34.8449408  40.9229408  68.1220000
  35.5749408  42.2489408  68.1370000  36.0519408  36.0389408  72.9900000
  36.7619408  35.9259408  72.3580000  35.9799408  36.9859408  73.1040000
  30.5089408  39.7659408  73.8980000  29.8269408  39.7809408  74.5700000
  30.2249408  39.0889408  73.2830000  52.0069408  43.9469408  76.1180000
  52.6479408  43.3789408  75.6900000  52.4899408  44.3509408  76.8390000
  33.1369408  45.9089408  77.4420000  33.2879408  46.7359408  77.8990000
  32.3239408  46.0479408  76.9560000  54.1139408  33.7159408  81.1230000
  54.5879408  34.4759408  80.7840000  54.5419408  33.5189408  81.9560000
  43.7419408  36.4529408  75.6390000  44.2449408  36.8479408  74.9270000
  43.4279408  37.1979408  76.1520000  33.9139408  44.3159408  80.0960000
  33.3239408  45.0459408  80.2810000  33.8699408  44.2069408  79.1460000
  49.3529408  39.0949408  79.9650000  48.9699408  39.8979408  80.3180000
  49.1119408  38.4159408  80.5960000  47.2159408  32.2419408  74.2630000
  47.4569408  31.6839408  75.0030000  46.9959408  33.0849408  74.6600000
  36.1759408  33.6459408  83.8610000  37.0319408  33.4339408  84.2340000
  35.6269408  33.8449408  84.6190000  30.6509408  44.1239408  83.5250000
  29.7119408  43.9479408  83.5810000  30.9809408  43.4709408  82.9080000
  32.0539408  42.5049408  81.6720000  32.7779408  43.0489408  81.3630000
  31.3189408  42.7389408  81.1060000  57.4739408  38.2959408  67.3770000
  57.0789408  39.0559408  66.9490000  57.4529408  37.6089408  66.7110000
  34.6389408  38.2059408  60.3610000  34.5499408  39.1419408  60.5400000
  35.5799408  38.0399408  60.4160000  33.5789408  35.2939408  74.7230000
  34.2869408  35.7469408  74.2640000  32.8469408  35.9109408  74.7040000
  44.3679408  38.5949408  80.4910000  44.4269408  39.5469408  80.5680000
  44.3979408  38.4279408  79.5490000  32.4339408  59.4479408  81.3220000
  31.7669408  58.7629408  81.3040000  32.1439408  60.0829408  80.6670000
  49.6399408  47.0629408  81.6660000  50.2749408  47.2579408  82.3550000
  49.4069408  47.9179408  81.3040000  57.1349408  42.3819408  81.4320000
  56.3539408  41.8949408  81.6950000  57.7049408  42.3559408  82.2000000
  31.7099408  34.5589408  77.3620000  31.2679408  34.1129408  76.6390000
  31.0809408  35.2169408  77.6580000  33.7859408  33.1389408  65.5410000
  34.7399408  33.2159408  65.5740000  33.5029408  33.8839408  65.0110000
  52.3099408  40.3559408  81.7640000  51.7209408  41.1059408  81.6740000
  51.7629408  39.6659408  82.1410000  58.6129408  50.5529408  80.3810000
  59.2029408  50.8629408  81.0670000  58.5069408  51.3039408  79.7970000
  48.5159408  55.7009408  60.7170000  48.6129408  56.6029408  61.0230000
  49.1969408  55.5999408  60.0510000  54.3199408  45.3179408  73.4330000
  53.7379408  46.0469408  73.2200000  54.8819408  45.6559408  74.1310000
  52.5469408  45.5769408  64.2880000  51.8889408  46.0879408  63.8160000
  52.4899408  44.7009408  63.9070000  49.5539408  30.0589408  77.2370000
  49.8519408  30.3489408  76.3750000  48.6799408  30.4369408  77.3290000
  54.5779408  56.1839408  79.7680000  55.3119408  55.7339408  79.3490000
  53.8019408  55.8429408  79.3220000  51.9709408  59.7309408  64.2900000
  51.4919408  60.5529408  64.3860000  52.2929408  59.5359408  65.1700000
  49.7779408  53.9979408  73.5600000  50.2779408  54.1409408  72.7560000
  50.3799408  53.5269408  74.1360000  46.2369408  32.5929408  67.0360000
  46.4979408  31.7169408  66.7530000  47.0569408  33.0199408  67.2820000
  47.8549408  33.6489408  68.8230000  48.0219408  34.5789408  68.9790000
  47.6949408  33.2839408  69.6930000  50.3289408  54.1079408  62.8240000
  49.6049408  54.5969408  62.4350000  50.2499408  54.2699408  63.7640000
  51.6989408  30.0119408  79.4060000  52.3109408  29.7979408  78.7010000
  50.9559408  30.4209408  78.9620000  57.1489408  51.4149408  68.1260000
  57.0169408  51.9989408  68.8730000  56.3659408  50.8649408  68.1090000
  51.1139408  32.1109408  64.7390000  51.1109408  32.6599408  65.5240000
  51.5609408  32.6399408  64.0780000  52.0079408  40.1399408  76.2200000
  51.9829408  40.3189408  75.2790000  52.8879408  39.7949408  76.3750000
  46.6089408  48.0909408  73.3550000  46.7289408  47.5009408  72.6110000
  47.4469408  48.5439408  73.4390000  57.8639408  47.4319408  69.3610000
  57.7469408  47.2979408  70.3010000  58.3079408  48.2779408  69.2930000
  31.0329408  55.6039408  73.9710000  30.2089408  55.2399408  74.2930000
  31.2309408  55.0919408  73.1870000  31.9339408  59.6879408  78.6420000
  32.2469408  58.7839408  78.6550000  31.5109408  59.7829408  77.7880000
  31.1559408  48.4609408  80.0400000  30.2709408  48.7809408  79.8660000
  31.0349408  47.5459408  80.2950000  32.0799408  58.3339408  63.5080000
  31.6479408  58.7749408  62.7770000  32.4669408  59.0439408  64.0210000
  47.4589408  49.6149408  66.9330000  46.5709408  49.2699408  67.0270000
  47.7209408  49.3639408  66.0470000  56.6749408  47.5639408  73.5590000
  56.2789408  47.7839408  74.4030000  56.8119408  46.6169408  73.5990000
  49.9319408  53.5469408  65.4520000  49.4589408  52.7149408  65.4690000
  50.8459408  53.3059408  65.6030000  53.0439408  51.6259408  73.4910000
  52.5689408  51.6099408  72.6600000  53.9519408  51.4399408  73.2520000
  51.5259408  57.0239408  63.9340000  51.8329408  56.7029408  63.0860000
  51.8009408  57.9409408  63.9570000  52.5659408  53.1829408  66.2490000
  52.5139408  52.3989408  66.7960000  53.4839408  53.2299408  65.9820000
  32.7359408  53.2419408  81.7040000  32.8889408  53.6109408  80.8350000
  32.5469408  53.9999408  82.2570000  55.2289408  33.2469408  72.4100000
  54.8559408  32.6399408  71.7710000  56.0849408  33.4789408  72.0500000
  33.0529408  56.7679408  75.5720000  32.4119408  56.2939408  75.0430000
  33.1159408  57.6289408  75.1590000  54.1119408  51.8259408  63.7350000
  54.7569408  52.4489408  64.0690000  54.4369408  51.5849408  62.8680000
  55.3229408  46.5199408  63.7300000  55.4299408  45.8639408  63.0410000
  54.4889408  46.2979408  64.1450000  55.6729408  50.8899408  83.2500000
  55.9379408  51.6929408  82.8020000  55.0279408  50.4909408  82.6670000
  58.0719408  45.0429408  74.1250000  58.3279408  44.1539408  73.8810000
  58.7059408  45.6059408  73.6790000  51.4969408  47.6769408  68.9910000
  50.6869408  47.9649408  69.4120000  51.2069408  47.1699408  68.2330000
  51.3089408  51.2979408  70.9070000  50.3719408  51.3809408  71.0840000
  51.3559408  50.9219408  70.0280000  52.7679408  49.3119408  77.3790000
  52.3009408  50.0629408  77.0110000  53.4259408  49.6989408  77.9570000
  49.7129408  51.5399408  67.5910000  49.1179408  50.8719408  67.2500000
  50.5109408  51.0599408  67.8100000  53.7039408  47.7479408  70.5130000
  54.1529408  46.9339408  70.2860000  52.9529408  47.7799408  69.9200000
  57.4709408  55.8359408  66.5070000  57.7579408  54.9329408  66.6370000
  57.3959408  55.9299408  65.5570000  57.1539408  55.2229408  78.8610000
  57.2309408  54.5909408  78.1470000  57.9429408  55.7599408  78.7930000
  58.9979408  45.2499408  77.3840000  58.6679408  45.0439408  78.2580000
  58.5579408  44.6249408  76.8080000  47.0249408  52.7099408  77.6690000
  46.8809408  52.0149408  77.0260000  46.7759408  53.5139408  77.2140000
  55.5159408  32.1409408  62.2740000  54.6969408  32.6339408  62.2290000
  55.2789408  31.3189408  62.7030000  57.8379408  46.4779408  64.9610000
  57.1649408  46.4449408  64.2810000  58.2269408  47.3489408  64.8720000
  48.1619408  41.4479408  78.1310000  48.1129408  41.6889408  79.0560000
  49.0279408  41.7449408  77.8520000  41.7949408  34.1809408  75.4660000
  41.0579408  34.3869408  76.0420000  42.4969408  34.7619408  75.7580000
  54.6279408  59.7129408  63.2650000  53.6809408  59.5999408  63.3410000
  54.9819408  59.3039408  64.0550000  54.1549408  58.4689408  68.6710000
  54.9869408  57.9959408  68.6860000  53.5239408  57.8559408  69.0480000
  57.6299408  58.3429408  67.5860000  57.5669408  57.3909408  67.5050000
  57.5549408  58.5079408  68.5260000  56.7179408  53.2369408  77.1170000
  57.0469408  53.5299408  76.2670000  56.4409408  52.3329408  76.9690000
  58.6429408  53.4169408  62.1320000  59.5469408  53.7219408  62.2000000
  58.2299408  54.0239408  61.5180000  48.1019408  59.3339408  73.8490000
  48.8249408  59.9569408  73.9170000  48.5209408  58.5029408  73.6270000
  30.8829408  45.8929408  80.9960000  31.0199408  45.6469408  81.9110000
  30.0429408  45.4959408  80.7640000  59.7119408  57.0349408  78.1520000
  59.5509408  57.4989408  77.3300000  59.2639408  57.5589408  78.8150000
  37.1339408  53.6299408  77.5170000  36.9599408  54.4419408  77.0430000
  37.4829408  53.0339408  76.8540000  34.8129408  50.6049408  80.3340000
  34.8989408  51.5329408  80.5520000  34.8869408  50.1529408  81.1740000
  55.3029408  56.0099408  71.7730000  55.0519408  55.5969408  70.9470000
  54.6769408  56.7259408  71.8830000  45.4609408  53.4619408  63.0360000
  45.9439408  53.2799408  62.2300000  45.3659408  52.6069408  63.4560000
  43.5109408  57.9189408  75.3630000  44.4469408  57.8499408  75.5500000
  43.2639408  57.0499408  75.0470000  55.1669408  55.1589408  61.8110000
  54.2559408  54.8679408  61.8270000  55.3879408  55.2049408  60.8810000
  51.1539408  57.1659408  66.5480000  51.4189408  56.9389408  65.6570000
  51.5359408  58.0299408  66.7000000  46.0469408  34.5639408  75.7710000
  46.0809408  34.5099408  76.7260000  45.4529408  35.2939408  75.5940000
  32.8799408  57.4629408  72.2670000  32.0239408  57.0379408  72.2150000
  33.2679408  57.3299408  71.4030000  58.6919408  49.2009408  63.8620000
  59.5599408  48.8229408  63.7170000  58.1619408  48.8679408  63.1380000
  57.3199408  48.8899408  61.5420000  57.8129408  49.1749408  60.7720000
  57.3469408  47.9339408  61.5040000  30.1709408  55.8719408  63.6420000
  30.6029408  55.3299408  62.9810000  30.8439408  56.4929408  63.9200000
  51.9069408  50.2649408  68.2860000  51.7919408  49.3209408  68.3890000
  52.4119408  50.3589408  67.4790000  50.8209408  55.7819408  71.5460000
  50.6039408  55.9449408  70.6280000  50.7959408  56.6459408  71.9560000
  57.3569408  31.1799408  66.2670000  57.6309408  31.6629408  65.4870000
  58.0139408  30.4909408  66.3660000  48.4929408  50.8929408  71.3400000
  48.2899408  50.2629408  70.6490000  47.8709408  51.6069408  71.2050000
  57.5929408  58.9229408  70.4380000  57.4519408  59.3709408  71.2720000
  58.5019408  58.6269408  70.4740000  39.8979408  58.3239408  77.5680000
  40.5479408  57.6229408  77.5210000  39.0609408  57.8869408  77.4100000
  30.6229408  55.0849408  79.8260000  31.5509408  54.8679408  79.9130000
  30.5909408  55.7159408  79.1080000  59.5049408  39.6089408  63.9390000
  59.2369408  39.4409408  63.0360000  60.3389408  39.1489408  64.0320000
  54.9399408  58.5519408  72.8940000  55.6679408  58.0659408  73.2810000
  55.3499408  59.3119408  72.4820000  56.2609408  50.5759408  76.5330000
  55.9599408  49.7359408  76.1870000  57.1519408  50.4039408  76.8380000
  30.9209408  59.9589408  69.9480000  31.4189408  59.3979408  69.3520000
  30.0779408  60.0829408  69.5120000  30.1289408  30.2789408  66.1440000
  30.1339408  30.2069408  65.1890000  30.6739408  29.5509408  66.4420000
  50.1059408  56.3139408  68.9570000  50.3829408  56.3689408  68.0430000
  49.8789408  57.2129408  69.1940000  47.8029408  31.4979408  62.0150000
  47.8179408  31.3079408  62.9530000  47.9959408  30.6579408  61.5970000
  51.2849408  51.4409408  63.2030000  52.1909408  51.6019408  63.4660000
  50.9289408  52.3109408  63.0260000  54.8339408  48.1349408  75.5300000
  55.1179408  47.2749408  75.8380000  54.2629408  48.4619408  76.2250000
  55.9399408  53.0769408  70.1740000  55.0409408  52.8989408  70.4490000
  55.8779408  53.8789408  69.6550000  30.5509408  53.0329408  68.3860000
  30.1859408  53.4379408  67.6000000  29.8569408  53.1109408  69.0410000
  54.6889408  56.4959408  83.9890000  55.4609408  56.4079408  83.4300000
  54.0209408  55.9579408  83.5630000  49.7889408  57.3129408  83.2930000
  50.5389408  57.1429408  82.7230000  49.6029408  58.2449408  83.1720000
  56.0789408  58.6559408  65.3270000  56.5179408  58.9459408  66.1270000
  56.5309408  57.8469408  65.0860000  51.9989408  57.5469408  61.0180000
  52.9239408  57.6119408  60.7810000  51.7279408  56.6889408  60.6910000
  47.6129408  50.7449408  63.2240000  47.4149408  49.8939408  62.8320000
  47.7729408  51.3209408  62.4770000  58.7029408  53.2359408  80.3090000
  59.5569408  53.6369408  80.1500000  58.0819408  53.8059408  79.8540000
  49.1839408  52.3919408  79.3730000  48.8759408  52.0519408  80.2130000
  48.3959408  52.4469408  78.8330000  52.4529408  52.8319408  84.3870000
  53.2899408  53.2969408  84.4070000  51.9209408  53.3219408  83.7600000
  59.3329408  50.1069408  69.6110000  60.1389408  50.5079408  69.2850000
  58.7129408  50.1949408  68.8870000  59.7389408  31.2499408  82.7270000
  59.9719408  30.5979408  82.0660000  58.7969408  31.1349408  82.8560000
  56.4519408  48.2429408  83.9800000  56.5979408  49.0739408  83.5290000
  55.5169408  48.0689408  83.8690000  32.8429408  55.7119408  83.1490000
  33.7689408  55.4969408  83.0340000  32.8479408  56.5679408  83.5780000
  58.0669408  45.0089408  80.1910000  58.0739408  45.9439408  79.9830000
  57.1889408  44.8459408  80.5340000  59.9059408  58.0329408  81.8660000
  59.3759408  58.3819408  82.5830000  60.0419408  57.1129408  82.0930000
  50.8229408  50.4389408  84.5460000  51.4419408  51.1659408  84.6110000
  50.8099408  50.2179408  83.6140000  33.7959408  32.6399408  61.5360000
  33.1589408  33.0979408  60.9870000  33.2689408  32.0539408  62.0780000
  54.2699408  59.2149408  84.6630000  54.2869408  58.9489408  85.5820000
  54.4699408  58.4149408  84.1780000  50.7379408  33.9019408  80.2470000
  50.8629408  33.9519408  79.3000000  51.6089408  34.0529408  80.6130000
  59.0199408  58.8129408  84.3330000  59.8619408  59.1639408  84.6250000
  58.8459408  58.0819408  84.9260000  56.1579408  56.4039408  63.9090000
  55.6669408  57.2129408  64.0520000  55.8099408  56.0549408  63.0890000
  47.0399408  58.4119408  84.8180000  47.5809408  58.5059408  85.6020000
  47.1749408  57.5059408  84.5410000  53.6199408  54.9529408  82.0760000
  52.8519408  54.5989408  81.6270000  54.1499408  55.3379408  81.3780000
  51.2529408  53.5169408  80.7880000  50.5179408  53.0819408  80.3570000
  50.8559408  53.9929408  81.5170000  33.1729408  59.6979408  83.8650000
  32.8949408  59.4999408  82.9710000  33.6089408  60.5479408  83.7990000
  54.4219408  39.4159408  80.1160000  55.2529408  39.6309408  80.5400000
  53.7539408  39.7569408  80.7110000  32.7039408  51.1609408  60.5350000
  31.8629408  51.6189408  60.5440000  32.8899408  51.0209408  59.6060000
  48.5739408  56.5729408  79.9790000  49.3969408  57.0059408  80.2050000
  47.9349408  56.9379408  80.5900000  53.9579408  31.6669408  83.3620000
  53.0839408  31.9459408  83.6370000  54.0009408  30.7409408  83.6010000
  53.5929408  50.4459408  66.1030000  54.4549408  50.0469408  66.2220000
  53.6239408  50.8299408  65.2270000  51.0189408  51.9559408  77.3460000
  50.6409408  52.0609408  78.2200000  51.4569408  52.7889408  77.1720000
  59.3579408  36.4659408  81.7420000  58.9689408  36.1709408  80.9190000
  59.0259408  35.8529408  82.3980000  35.0389408  50.2599408  83.3180000
  35.4329408  50.8059408  83.9980000  34.2329408  49.9279408  83.7140000
  52.3159408  30.6029408  60.0200000  52.8489408  30.3259408  60.7650000
  52.9519408  30.8169408  59.3370000  32.0639408  32.4419408  79.6400000
  32.0359408  33.1009408  78.9460000  31.3919408  31.8059408  79.3950000
  46.0279408  59.2599408  78.5900000  45.0909408  59.1729408  78.4130000
  46.1359408  58.9249408  79.4800000  50.3859408  54.2079408  83.2040000
  50.0829408  55.1069408  83.3300000  49.8389408  53.6859408  83.7910000
  30.8689408  36.2169408  60.9050000  31.1979408  36.6709408  60.1290000
  31.6129408  36.1979408  61.5060000  40.0009408  56.2329408  81.9690000
  40.8279408  55.7619408  82.0740000  40.2609408  57.1449408  81.8330000
  43.1139408  59.2469408  78.1040000  43.4209408  58.6579408  77.4150000
  42.3449408  59.6749408  77.7280000  34.1209408  73.6749408  13.7610000
  34.0209408  74.4239408  14.3480000  34.6659408  73.0579408  14.2490000
  49.4019408  77.0039408   3.4620000  49.3069408  76.1259408   3.8320000
  48.6369408  77.1089408   2.8970000  51.2879408  65.2629408  29.9310000
  50.5409408  64.9539408  30.4440000  50.9199408  65.9259408  29.3470000
  36.9639408  87.2739408   4.1330000  36.2589408  86.7169408   4.4630000
  36.9889408  88.0129408   4.7410000  51.1249408  61.1489408  21.7350000
  50.9649408  60.2999408  21.3230000  51.6349408  61.6379408  21.0890000
  36.7109408  78.7099408  21.4700000  36.3839408  79.3649408  22.0880000
  37.6529408  78.8729408  21.4250000  41.8849408  71.9679408  12.0810000
  41.2899408  71.2449408  12.2800000  42.7569408  71.5759408  12.1090000
  35.8789408  66.9689408   8.7010000  35.4139408  66.1719408   8.4480000
  35.9029408  67.4959408   7.9020000  45.1049408  77.8279408  15.6050000
  44.2939408  77.6459408  15.1300000  45.7899408  77.7719408  14.9380000
  30.6359408  74.0729408   8.5360000  29.8129408  74.3929408   8.1640000
  30.9089408  73.3719408   7.9450000  48.8559408  78.6129408   9.2840000
  48.4689408  78.1719408  10.0410000  48.1489408  79.1559408   8.9360000
  39.0639408  68.6819408  17.8260000  38.4579408  68.2489408  18.4280000
  39.3939408  67.9759408  17.2700000  41.2259408  71.3479408   5.7040000
  40.6419408  71.7979408   6.3140000  41.6789408  70.6969408   6.2400000
  47.4669408  75.2269408  17.9080000  47.9479408  75.1439408  18.7320000
  48.1319408  75.1079408  17.2300000  52.0799408  69.5039408   6.3360000
  51.9909408  69.7379408   5.4120000  52.7389408  70.1109408   6.6740000
  35.6149408  73.6859408   8.9500000  35.7649408  73.7169408   9.8950000
  34.7539408  74.0859408   8.8300000  59.3079408  78.9599408  15.2020000
  59.6479408  79.5329408  15.8900000  59.8979408  79.0979408  14.4610000
  32.5329408  67.1629408  28.8470000  33.2739408  67.5749408  29.2930000
  32.8629408  66.9599408  27.9720000  42.9309408  85.5519408  14.1980000
  43.8639408  85.3599408  14.1090000  42.5239408  85.1209408  13.4470000
  58.0369408  65.5629408   5.5490000  57.0969408  65.6829408   5.4130000
  58.2159408  64.6789408   5.2300000  48.3629408  81.3589408   0.6810000
  47.7089408  82.0489408   0.5670000  48.2789408  80.8169408  -0.1030000
  40.6849408  75.9839408   6.6650000  41.1339408  76.8249408   6.7490000
  39.8769408  76.0929408   7.1670000  48.4319408  64.8569408  25.0460000
  48.1149408  64.5139408  25.8810000  48.3719408  64.1159408  24.4430000
  58.7999408  69.9389408  15.7730000  57.8609408  69.9999408  15.5990000
  58.8569408  69.5959408  16.6650000  32.3889408  80.7699408   3.8460000
  33.1819408  81.3059408   3.8470000  32.6729408  79.9199408   4.1820000
  47.9779408  74.4559408  10.6650000  47.2519408  74.3639408  10.0480000
  47.7039408  73.9559408  11.4340000  39.6549408  84.0029408  30.1860000
  39.0479408  84.5939408  29.7410000  40.5229408  84.3469408  29.9750000
  43.5299408  74.6779408   0.5350000  42.9009408  73.9769408   0.7060000
  43.0779408  75.2629408  -0.0730000  46.9329408  82.0279408  13.3670000
  47.2779408  82.9039408  13.1980000  47.6629408  81.4399408  13.1730000
  34.4319408  88.7859408  26.2340000  34.8979408  88.1089408  25.7430000
  33.7839408  89.1269408  25.6170000  41.7599408  83.1179408   8.5430000
  41.6899408  83.8819408   7.9720000  42.0759408  82.4179408   7.9710000
  44.5309408  86.0489408   1.8910000  45.1549408  86.0429408   1.1650000
  44.9719408  85.5639408   2.5890000  31.5889408  67.8679408   5.1380000
  31.9129408  67.0799408   4.7030000  32.3749408  68.2939408   5.4810000
  34.3779408  61.6949408  16.6380000  33.4469408  61.8319408  16.4640000
  34.7679408  61.5709408  15.7730000  46.9779408  74.3809408  28.3850000
  47.8199408  73.9829408  28.6060000  47.1409408  74.8459408  27.5640000
  41.0189408  62.1809408  18.1460000  40.7569408  63.1019408  18.1390000
  41.6919408  62.1279408  18.8240000  45.1549408  60.6799408   8.8720000
  44.7649408  61.4279408   8.4200000  45.0899408  59.9599408   8.2450000
  45.4189408  74.0349408  13.0950000  44.8099408  73.9809408  13.8320000
  44.8679408  74.2559408  12.3440000  36.8749408  86.9259408   9.7580000
  37.0919408  87.8089408  10.0560000  37.0169408  86.9499408   8.8120000
  42.2769408  69.0759408  26.9600000  41.8759408  69.8269408  26.5240000
  42.9859408  69.4519408  27.4820000  58.5349408  75.5709408   7.6430000
  58.4489408  76.1489408   6.8850000  58.1879408  76.0809408   8.3750000
  38.3539408  66.3839408   3.5020000  39.0179408  66.9059408   3.0520000
  37.9879408  66.9769408   4.1590000  54.3849408  69.4109408  17.3650000
  54.7209408  68.5179408  17.2950000  54.2909408  69.5589408  18.3060000
  37.7939408  73.7699408   7.0920000  37.1589408  73.5089408   7.7590000
  38.3649408  73.0079408   6.9930000  39.0859408  62.8069408  12.3010000
  39.2659408  63.2629408  11.4790000  39.7729408  63.1059408  12.8980000
  45.8509408  73.9929408   9.0110000  45.1649408  74.5659408   8.6690000
  45.4019408  73.1709408   9.2080000  37.6489408  77.3009408  12.5020000
  37.1329408  77.8939408  13.0490000  37.6139408  76.4609408  12.9600000
  52.4549408  63.6049408   2.6640000  51.6819408  63.5749408   2.1000000
  52.7979408  64.4919408   2.5530000  51.2289408  80.5009408  14.9470000
  50.8759408  81.0379408  15.6570000  51.9479408  81.0209408  14.5870000
  37.2079408  68.2029408  29.8520000  37.3599408  68.7419408  30.6280000
  38.0649408  68.1409408  29.4310000  40.4099408  85.8839408  26.7950000
  40.4019408  86.2829408  25.9250000  39.6159408  86.2129408  27.2170000
  41.1919408  86.2969408   1.5580000  41.2509408  87.2469408   1.6600000
  41.6389408  85.9449408   2.3270000  34.6869408  63.6109408  12.3470000
  33.8339408  63.9499408  12.0730000  35.2309408  64.3909408  12.4540000
  43.1469408  72.3189408  27.0580000  43.5739408  72.0469408  26.2450000
  43.8619408  72.4039408  27.6880000  45.5709408  64.5019408  23.2080000
  46.1229408  65.1429408  22.7600000  45.2669408  63.9189408  22.5130000
  44.5329408  79.5259408   7.8070000  44.0209408  78.9609408   8.3850000
  43.9069408  80.1799408   7.4950000  34.9169408  74.0799408   6.0540000
  35.2429408  73.2809408   6.4690000  34.3959408  74.5079408   6.7330000
  41.9419408  64.9309408  18.4310000  42.8109408  65.3169408  18.3240000
  41.7659408  64.9919408  19.3700000  32.9999408  83.7209408   4.9930000
  32.5599408  83.1309408   5.6050000  33.7909408  83.2499408   4.7310000
  39.3909408  65.9979408  13.5600000  38.4679408  65.8209408  13.7410000
  39.5449408  65.6099408  12.6990000  36.4589408  79.0469408  14.2110000
  35.7969408  78.9559408  14.8960000  37.0899408  79.6709408  14.5690000
  42.7269408  64.7419408  13.0350000  43.5559408  64.2759408  12.9230000
  42.3699408  64.4009408  13.8560000  40.9189408  75.5149408  11.9010000
  40.0709408  75.1079408  11.7250000  40.7289408  76.4519408  11.9560000
  41.2779408  68.6519408   9.3500000  41.3409408  67.9429408   9.9910000
  40.6729408  69.2789408   9.7440000  37.3769408  88.8119408   1.6800000
  36.6809408  88.2869408   1.2850000  37.2869408  88.6599408   2.6210000
  45.6899408  78.6069408   4.5490000  45.8669408  78.6029408   3.6090000
  46.2479408  77.9129408   4.9010000  36.0069408  60.8799408   4.4630000
  36.8559408  60.4709408   4.2940000  36.1609408  61.8149408   4.3310000
  39.4119408  68.7209408   6.5640000  39.9009408  68.4549408   7.3430000
  40.0189408  69.2819408   6.0810000  40.9679408  78.3959408  15.9660000
  41.6029408  77.8829408  15.4660000  40.1389408  77.9329408  15.8490000
  39.0729408  70.0809408   9.9790000  39.3089408  70.3209408  10.8750000
  38.1399408  69.8699408  10.0250000  38.6629408  83.0849408   5.7270000
  39.1639408  82.7029408   6.4480000  39.3049408  83.2099408   5.0280000
  42.1909408  63.0269408   6.6490000  42.5829408  63.5069408   7.3790000
  42.8259408  62.3399408   6.4440000  32.7639408  70.3209408  15.9390000
  32.1979408  70.7929408  15.3280000  32.1579408  69.8679408  16.5260000
  33.7929408  65.9289408  18.5460000  34.5359408  65.3939408  18.2680000
  33.0419408  65.5539408  18.0850000  37.2649408  65.4869408  10.7700000
  36.6499408  66.0649408  10.3180000  37.6409408  64.9459408  10.0760000
  34.4899408  64.3149408   8.6110000  33.8189408  63.6769408   8.8510000
  34.7519408  64.0669408   7.7250000  48.2059408  71.1969408  11.0920000
  48.7899408  71.1579408  10.3350000  47.3289408  71.0939408  10.7250000
  42.6159408  62.7419408   2.6460000  42.2479408  63.1119408   1.8440000
  43.2749408  63.3789408   2.9240000  53.6789408  79.2509408  25.6230000
  52.9449408  78.9459408  26.1550000  54.0749408  79.9529408  26.1400000
  33.9959408  70.0319408  19.2360000  34.7059408  69.4889408  18.8920000
  34.1359408  70.8909408  18.8370000  43.6049408  69.6929408   3.1680000
  44.0819408  68.9459408   3.5280000  44.2209408  70.4239408   3.2310000
  40.6809408  71.2849408   0.4750000  40.9629408  71.9649408  -0.1370000
  40.5939408  71.7389408   1.3140000  36.1979408  88.7859408   7.3920000
  35.6229408  89.3219408   7.9370000  36.9389408  89.3569408   7.1890000
  45.6389408  66.6119408   8.9870000  45.6199408  66.6119408   9.9440000
  46.5409408  66.8459408   8.7660000  46.1629408  80.3279408   9.8410000
  45.8969408  80.1039408   8.9500000  45.7949408  79.6309408  10.3840000
  48.8369408  79.6889408  13.6890000  49.6529408  79.8079408  14.1740000
  49.0429408  79.9709408  12.7980000  37.3569408  74.9479408  14.1060000
  36.7409408  74.6609408  14.7800000  37.7119408  74.1349408  13.7450000
  52.1589408  71.9809408   8.6940000  52.2029408  72.9319408   8.6020000
  52.8179408  71.6489408   8.0840000  31.5759408  61.8369408  12.3790000
  31.6699408  61.3979408  11.5340000  31.7809408  62.7539408  12.1980000
  39.7979408  73.5629408  20.7020000  39.9119408  72.6129408  20.6900000
  40.2249408  73.8659408  19.9000000  35.8779408  71.1339408  28.3530000
  36.6849408  71.2089408  28.8610000  35.1959408  70.9759408  29.0060000
  42.6309408  73.1459408  14.3340000  42.2629408  73.3379408  13.4710000
  42.9819408  72.2589408  14.2530000  40.1429408  68.5439408   2.9460000
  40.7999408  68.6049408   2.2530000  40.5939408  68.8529408   3.7320000
  34.7069408  75.4199408  23.1280000  34.5639408  75.8999408  22.3120000
  34.9709408  76.0909408  23.7570000  39.9729408  61.6209408   9.1660000
  40.8859408  61.7839408   8.9290000  40.0159408  61.2549408  10.0490000
  42.5159408  69.3919408   7.0440000  42.9239408  68.9559408   6.2950000
  42.6179408  68.7729408   7.7670000  50.6819408  74.5549408  10.8580000
  50.4699408  74.9719408  11.6930000  49.8309408  74.3559408  10.4670000
  48.2509408  70.8129408  27.5970000  47.9399408  70.8729408  26.6940000
  49.1989408  70.9269408  27.5330000  35.0659408  72.1979408  18.1450000
  35.8319408  71.7159408  17.8330000  34.6889408  72.5859408  17.3550000
  34.4699408  66.9909408  21.0950000  34.3759408  66.7169408  20.1820000
  34.4599408  67.9469408  21.0610000  46.7989408  68.8369408  21.9130000
  46.1259408  68.2629408  21.5470000  47.3839408  68.2479408  22.3890000
  47.3339408  61.3149408  17.3720000  47.1459408  62.1649408  17.7700000
  46.5919408  60.7639408  17.6200000  34.3569408  84.6489408  13.1330000
  35.1819408  85.0809408  12.9100000  33.8739408  85.2999408  13.6410000
  36.0859408  74.8579408  11.4430000  35.4669408  75.3769408  10.9300000
  35.9959408  75.1919408  12.3360000  43.4409408  76.1729408   8.5040000
  43.3789408  75.9409408   7.5780000  42.7799408  76.8539408   8.6260000
  38.5019408  64.1379408   8.6120000  38.8629408  64.4539408   7.7840000
  38.9809408  63.3279408   8.7890000  39.2219408  89.9579408  19.5540000
  39.1209408  89.3189408  18.8490000  39.7729408  90.6449408  19.1780000
  35.8979408  86.1729408  15.7840000  34.9769408  86.4009408  15.6590000
  36.2559408  86.1269408  14.8980000  34.1719408  68.0399408   6.5580000
  33.5999408  68.3309408   7.2680000  34.3229408  68.8259408   6.0330000
  50.9309408  68.1219408  17.8530000  50.4899408  68.4399408  18.6410000
  51.2959408  68.9089408  17.4480000  33.5469408  89.1949408  14.3880000
  33.4529408  88.7309408  13.5560000  34.0779408  89.9629408  14.1760000
  37.6459408  75.5889408   0.5610000  38.1379408  74.9059408   1.0160000
  38.1499408  76.3889408   0.7110000  39.7719408  62.8839408   5.6410000
  40.6209408  62.7349408   6.0590000  39.7999408  62.3549408   4.8440000
  39.0259408  76.3989408  15.6100000  38.7289408  76.0099408  16.4320000
  38.4029408  76.0809408  14.9560000  54.9449408  70.7089408  22.4340000
  54.4059408  70.1399408  22.9830000  54.3479408  71.3989408  22.1430000
  42.9919408  66.0789408  20.9050000  43.2669408  66.9929408  20.8340000
  43.4549408  65.7489408  21.6750000  43.9919408  70.0189408  29.0960000
  44.7189408  69.4589408  29.3680000  44.3539408  70.5539408  28.3890000
  45.0069408  67.1169408  28.0480000  45.2319408  67.0419408  28.9750000
  44.1499408  66.6969408  27.9740000  49.7759408  77.0209408   6.7930000
  49.6259408  77.7959408   6.2530000  49.1299408  77.0889408   7.4960000
  54.9269408  75.3199408   9.5870000  55.3159408  74.5869408  10.0650000
  55.3279408  75.2809408   8.7190000  35.7419408  71.5499408  12.2860000
  35.5099408  71.7689408  13.1890000  36.5849408  71.9799408  12.1450000
  59.0709408  62.3679408  13.5800000  59.1899408  62.7229408  14.4610000
  59.9599408  62.2269408  13.2550000  45.3469408  67.8619408  13.5700000
  45.5059408  67.1419408  12.9600000  46.2199408  68.1279408  13.8590000
  43.9419408  87.7469408  11.2050000  43.6119408  87.6369408  12.0970000
  43.2129408  88.1429408  10.7270000  31.1999408  77.8119408  29.4490000
  31.9049408  78.0979408  30.0290000  31.6469408  77.3699408  28.7280000
  32.4759408  73.4329408  11.5170000  32.9669408  73.3179408  12.3310000
  32.3929408  74.3819408  11.4200000  34.0809408  70.9719408  10.1910000
  33.3579408  71.5829408  10.3280000  34.6869408  71.1519408  10.9110000
  32.4699408  62.2689408   9.4860000  31.9209408  63.0069408   9.2190000
  31.8819408  61.5139408   9.4670000  33.0199408  76.0899408  11.5960000
  32.9749408  76.1599408  12.5500000  33.1089408  76.9939408  11.2930000
  42.5739408  74.1909408  16.7410000  42.6879408  73.7449408  15.9010000
  43.3929408  74.6689408  16.8720000  45.7109408  72.0629408  28.0250000
  46.5479408  71.6029408  28.0980000  45.9129408  72.9669408  28.2670000
  39.4949408  75.9309408   3.8740000  39.7659408  75.7989408   4.7830000
  39.9059408  76.7569408   3.6190000  38.0449408  78.2839408  17.2700000
  37.8129408  77.5769408  17.8720000  38.2419408  77.8409408  16.4450000
  38.0199408  61.0509408  14.0630000  38.1869408  61.8039408  13.4960000
  38.5849408  61.1939408  14.8240000  42.3299408  83.4389408   4.0320000
  41.5709408  82.9229408   3.7610000  43.0749408  83.0059408   3.6160000
  33.8559408  88.2669408   6.1100000  33.5329408  89.1219408   5.8250000
  34.7399408  88.4389408   6.4320000  32.1229408  82.1309408  17.8600000
  32.8419408  81.8089408  17.3180000  32.3069408  83.0629408  17.9750000
  48.9909408  68.3469408   5.9690000  49.9089408  68.3779408   6.2400000
  48.8449408  67.4349408   5.7200000  35.8029408  76.0779408   4.3120000
  36.5949408  75.6419408   3.9980000  35.6179408  75.6609408   5.1540000
  45.6349408  71.6509408   3.7230000  46.4549408  71.1739408   3.8460000
  45.4639408  72.0589408   4.5730000  43.6209408  75.0579408  11.2560000
  42.8359408  75.3699408  11.7060000  43.5009408  75.3309408  10.3470000
  36.7349408  70.4089408  16.9120000  37.6709408  70.2119408  16.8740000
  36.3309408  69.5979408  17.2210000  39.1019408  79.7299408  22.1000000
  39.8669408  79.3959408  21.6300000  39.3469408  80.6199408  22.3550000
  38.8879408  80.4159408   1.5990000  38.2829408  79.7779408   1.9770000
  38.7719408  81.2019408   2.1330000  43.4439408  60.5639408   5.1250000
  44.2609408  60.5429408   5.6220000  43.7179408  60.5099408   4.2090000
  38.1309408  77.3219408   9.6840000  38.1119408  78.2399408   9.4110000
  37.9969408  77.3509408  10.6310000  41.8609408  68.8709408   0.8180000
  41.4729408  69.7019408   0.5460000  42.8049408  69.0259408   0.7920000
  44.0549408  80.7059408  19.8650000  43.1819408  80.5199408  20.2090000
  44.1139408  80.1809408  19.0660000  38.7819408  74.8269408  10.5120000
  37.8989408  74.6719408  10.8490000  38.7299408  75.6859408  10.0920000
  55.7759408  75.5769408  15.5950000  56.5949408  75.4519408  15.1160000
  55.8309408  74.9639408  16.3280000  44.7319408  65.0299408   6.7360000
  45.2879408  64.2539408   6.6670000  45.2679408  65.6689408   7.2060000
  44.7409408  78.3739408  28.8420000  45.0239408  79.2489408  28.5730000
  45.2609408  78.1829408  29.6220000  44.8019408  75.4929408  16.8610000
  44.9129408  76.3009408  16.3600000  45.6729408  75.3059408  17.2110000
  37.7279408  73.2519408  26.7680000  37.4999408  72.7349408  27.5410000
  38.4259408  73.8349408  27.0650000  48.8059408  78.6449408  29.5420000
  49.1739408  77.7629408  29.4910000  49.4979408  79.2139408  29.2050000
  57.4529408  72.4809408  12.6510000  56.9679408  71.6609408  12.7380000
  58.3159408  72.2169408  12.3320000  49.8039408  70.9529408   8.8190000
  50.7069408  71.2619408   8.7410000  49.2889408  71.5889408   8.3220000
  43.6759408  72.0399408   8.3110000  42.9579408  72.4469408   8.7970000
  43.3909408  71.1369408   8.1740000  34.4319408  59.9699408   9.1520000
  34.9539408  60.3289408   9.8690000  33.7079408  60.5879408   9.0490000
  33.1979408  75.2869408   7.9950000  32.5999408  75.4139408   7.2590000
  32.7259408  74.7069408   8.5910000  43.4919408  70.2479408  15.4210000
  44.1179408  70.9619408  15.5410000  44.0109408  69.5349408  15.0460000
  58.8019408  66.7519408  15.1170000  58.5949408  66.3399408  14.2790000
  57.9779408  67.1509408  15.3980000  36.3509408  72.5299408  20.8020000
  35.7639408  72.6359408  20.0530000  36.8079408  73.3679408  20.8690000
  32.1939408  62.4329408  15.0200000  31.9859408  62.0149408  14.1840000
  32.7589408  63.1699408  14.7850000  50.3539408  61.1919408  14.3940000
  51.2449408  61.0649408  14.0680000  50.3279408  62.1089408  14.6690000
  42.9529408  78.1909408   4.7110000  42.8259408  78.4779408   5.6150000
  43.8859408  78.3269408   4.5450000  41.2079408  73.2309408   9.6310000
  41.4929408  73.1859408  10.5430000  40.4689408  73.8389408   9.6400000
  35.2889408  76.5969408   1.2440000  36.1979408  76.4009408   1.4730000
  35.0949408  76.0109408   0.5130000  35.9609408  61.2959408  10.8390000
  36.7089408  61.8909408  10.8830000  35.2019408  61.8499408  11.0230000
  44.0369408  69.3019408  10.0320000  43.0859408  69.2279408   9.9500000
  44.3769408  68.5189408   9.5980000  43.8409408  75.9929408  19.9150000
  43.3829408  75.6059408  19.1690000  44.1529408  76.8389408  19.5910000
  47.9259408  73.8949408  14.1400000  46.9729408  73.9149408  14.2200000
  48.2449408  74.1439408  15.0080000  47.9639408  64.7779408   0.3340000
  47.0519408  65.0459408   0.4500000  48.1979408  64.3589408   1.1630000
  36.0819408  71.7559408   3.1260000  35.2619408  72.2489408   3.0890000
  36.7199408  72.3779408   3.4750000  50.7849408  71.9599408  17.6010000
  51.3309408  71.2469408  17.2700000  50.9109408  72.6709408  16.9720000
  46.0959408  70.7469408   9.5820000  45.3069408  70.3579408   9.9590000
  46.3329408  70.1619408   8.8630000  41.8799408  71.9409408   3.1400000
  41.5959408  71.9629408   4.0530000  42.2839408  71.0799408   3.0340000
  40.6029408  78.1769408  12.3180000  39.6709408  78.0139408  12.4610000
  40.6839408  79.1309408  12.3230000  46.8019408  80.5669408  15.9690000
  47.5409408  79.9729408  15.8380000  46.7199408  81.0359408  15.1380000
  36.3819408  63.8779408   6.2780000  36.8239408  64.1609408   7.0780000
  36.7769408  64.4079408   5.5850000  47.8219408  70.6709408  24.7140000
  47.0509408  70.2079408  24.3860000  48.5589408  70.2549408  24.2680000
  50.9929408  76.8169408   1.4860000  51.3499408  77.6909408   1.3270000
  50.4049408  76.9299408   2.2320000  57.1529408  73.0869408  16.5300000
  57.5009408  72.5009408  17.2020000  56.4709408  72.5749408  16.0950000
  58.4819408  70.9349408   9.6410000  58.8959408  71.1749408  10.4700000
  58.9019408  71.4979408   8.9910000  44.8989408  86.5689408   8.8670000
  44.8359408  86.8249408   9.7880000  44.8469408  85.6129408   8.8800000
  36.4319408  69.2409408   9.6680000  35.6539408  69.7959408   9.6110000
  36.1929408  68.4429408   9.1960000  47.9739408  70.1959408   4.3400000
  48.5639408  70.9399408   4.4650000  48.2259408  69.5729408   5.0210000
  44.5639408  71.3319408  12.5050000  45.3129408  71.9219408  12.4160000
  44.8419408  70.5249408  12.0710000  35.8949408  79.3489408  10.4970000
  35.2319408  79.5939408  11.1420000  35.4229408  78.8129408   9.8600000
  40.5329408  64.8369408  11.0850000  40.4469408  65.5079408  10.4070000
  41.3799408  65.0149408  11.4930000  38.3729408  83.4639408  13.1860000
  39.1639408  83.9339408  12.9220000  37.6539408  83.9979408  12.8490000
  38.0019408  73.8009408   4.2870000  38.6839408  74.4149408   4.0160000
  37.9259408  73.9279408   5.2330000  38.5919408  80.0079408  11.6570000
  37.6919408  79.6829408  11.6220000  38.5009408  80.9549408  11.7650000
  38.5059408  89.5499408   4.7200000  39.2599408  89.8159408   4.1930000
  38.6619408  89.9459408   5.5770000  34.0379408  87.2559408   9.9530000
  34.9729408  87.0479408   9.9550000  33.9999408  88.1869408   9.7350000
  47.8569408  65.7969408   6.3200000  48.7739408  65.6119408   6.1180000
  47.3679408  65.4069408   5.5960000  54.8209408  67.4299408   8.6100000
  54.9309408  66.7309408   7.9650000  55.4989408  68.0679408   8.3900000
  39.6499408  71.8419408   7.8760000  40.4039408  72.2779408   8.2730000
  39.2779408  71.3139408   8.5820000  47.8409408  71.3329408  21.0730000
  47.5779408  70.4969408  21.4570000  47.0239408  71.8229408  20.9800000
  46.4069408  63.6289408  19.0480000  47.1099408  64.2789408  19.0450000
  46.1969408  63.5069408  19.9740000  41.6449408  68.1269408  23.6070000
  41.9199408  67.4939408  24.2710000  41.9309408  68.9729408  23.9510000
  48.3389408  68.6359408  17.0160000  48.1949408  69.4509408  17.4970000
  49.2549408  68.4159408  17.1850000  37.8239408  69.7049408   1.9020000
  38.6989408  69.3949408   2.1340000  37.3699408  69.7939408   2.7400000
  43.4879408  68.3599408  17.7820000  42.5719408  68.4729408  18.0380000
  43.7179408  69.1799408  17.3450000  57.1329408  73.4899408   6.5760000
  56.2129408  73.7239408   6.4540000  57.5309408  74.2739408   6.9540000
  35.3919408  69.8369408  21.5440000  34.4879408  70.0839408  21.7380000
  35.8819408  70.6569408  21.5990000  45.6989408  73.6459408  21.5090000
  44.9289408  74.2119408  21.4530000  45.7449408  73.3939408  22.4310000
  35.3759408  65.8509408   4.5400000  35.9379408  66.5929408   4.3170000
  35.1269408  66.0039408   5.4520000  51.4999408  80.8909408  21.6630000
  51.5299408  81.8449408  21.5890000  51.2169408  80.5929408  20.7990000
  46.1989408  72.7839408  24.3270000  46.9519408  72.3809408  24.7590000
  45.5079408  72.1229408  24.3830000  50.3079408  72.6819408  21.5200000
  49.5659408  72.7069408  22.1230000  50.0339408  73.2229408  20.7790000
  53.5869408  71.2759408   3.3410000  52.6949408  71.6219408   3.3230000
  54.1119408  71.9439408   2.9000000  37.8799408  86.0279408  23.7110000
  38.5289408  86.2299408  23.0370000  37.0729408  85.8609408  23.2240000
  48.4169408  74.7709408  20.7260000  48.8399408  75.1919408  21.4750000
  47.5249408  74.5919408  21.0240000  44.9759408  75.1649408  23.9550000
  45.6309408  75.7189408  23.5300000  45.4869408  74.4979408  24.4130000
  50.1269408  77.4139408  17.2570000  50.8569408  78.0169408  17.1180000
  50.2649408  77.0689408  18.1390000  47.7229408  69.0149408  14.5310000
  48.2079408  69.8399408  14.5330000  47.7629408  68.7109408  15.4380000
  47.0589408  64.2909408   3.6940000  47.3229408  63.4279408   4.0130000
  46.3329408  64.1129408   3.0950000  42.1429408  73.0499408  23.4810000
  42.7959408  73.1569408  22.7890000  41.8279408  73.9369408  23.6530000
  39.2999408  64.7489408  16.6790000  38.4779408  64.7659408  16.1890000
  39.0309408  64.7099408  17.5970000  40.2849408  69.8869408  12.5980000
  40.8409408  69.1149408  12.4900000  40.1829408  69.9779408  13.5460000
  41.5199408  70.6549408  24.6330000  41.7749408  71.4879408  24.2350000
  40.7539408  70.3749408  24.1320000  58.8309408  67.2719408   2.2880000
  58.8699408  66.9779408   3.1980000  59.5399408  66.7969408   1.8530000
  47.8369408  65.8009408  18.3520000  48.7399408  65.6199408  18.0890000
  47.7859408  66.7559408  18.3950000  45.8959408  79.4069408  24.8660000
  45.5879408  78.8379408  25.5710000  46.8499408  79.3899408  24.9430000
  42.3099408  77.8379408  18.4750000  41.5999408  77.7869408  17.8350000
  42.9599408  78.4099408  18.0670000  51.5769408  70.0929408  13.5580000
  50.8019408  70.5149408  13.9290000  51.6999408  70.5189408  12.7100000
  33.0429408  72.8729408  25.6090000  33.5349408  72.7249408  24.8020000
  32.7319408  72.0039408  25.8640000  35.6739408  83.6199408   0.0820000
  36.0949408  83.8689408   0.9050000  36.3839408  83.2649408  -0.4520000
  33.0279408  78.2679408   1.4330000  33.1569408  79.2159408   1.4620000
  33.8729408  77.9189408   1.1520000  35.6639408  68.1749408  18.2520000
  36.2629408  67.8789408  18.9380000  35.1889408  67.3859408  17.9920000
  35.9109408  66.2639408  23.1760000  35.8639408  65.3079408  23.1610000
  35.2579408  66.5469408  22.5370000  33.5549408  72.7819408   3.2750000
  32.7219408  72.4139408   3.5720000  33.4619408  73.7249408   3.4110000
  42.0799408  62.2879408  25.6550000  41.8949408  62.3419408  26.5920000
  41.6749408  63.0719408  25.2840000  33.4729408  69.6029408  27.1470000
  33.7089408  68.7169408  26.8730000  34.0979408  69.8149408  27.8400000
  50.1159408  63.8369408  15.0270000  50.6079408  64.5009408  14.5440000
  49.2639408  63.8059408  14.5920000  39.1499408  89.6889408  22.5040000
  39.9349408  90.2339408  22.5540000  39.1679408  89.3219408  21.6200000
  40.2899408  76.9219408  26.2360000  40.6129408  76.3839408  25.5120000
  40.5349408  77.8159408  25.9980000  35.6959408  66.5609408  27.9650000
  36.2729408  66.7839408  27.2350000  36.2299408  66.7069408  28.7460000
  39.0229408  70.0999408  23.4030000  38.3649408  70.6929408  23.7660000
  38.5369408  69.3039408  23.1870000  32.6359408  69.1879408  12.6550000
  32.1249408  69.8089408  13.1730000  31.9839408  68.6069408  12.2650000
  40.1199408  61.7629408   3.4120000  39.5699408  61.8339408   2.6310000
  40.9739408  62.0939408   3.1340000  45.5569408  85.5499408  26.2860000
  44.8219408  84.9969408  26.0220000  46.0899408  85.6339408  25.4950000
  37.1549408  67.1399408  25.5410000  36.6739408  67.0259408  24.7220000
  37.2739408  68.0859408  25.6200000  44.3109408  70.8199408  25.0000000
  43.4729408  70.6859408  24.5580000  44.6099408  69.9379408  25.2200000
  54.7679408  66.0699408  17.1460000  53.8289408  66.0299408  16.9640000
  55.1819408  65.7409408  16.3480000  35.1569408  71.4689408  15.1180000
  34.3929408  71.0489408  15.5120000  35.9069408  71.0229408  15.5130000
  46.3049408  77.8459408  18.6500000  46.4699408  78.5339408  18.0040000
  46.6669408  77.0539408  18.2540000  41.4229408  61.4139408  22.3640000
  41.7979408  61.2949408  23.2370000  42.1729408  61.6199408  21.8060000
  34.3739408  62.0349408  22.5920000  35.0449408  62.5869408  22.9950000
  33.7539408  62.6539408  22.2080000  37.8019408  76.5439408   7.0640000
  37.6149408  75.6139408   7.1890000  37.8329408  76.9049408   7.9500000
  39.5459408  74.8449408  27.9910000  39.9689408  75.6099408  27.6000000
  39.0599408  75.1949408  28.7380000  31.7749408  60.6259408  28.9360000
  32.5749408  61.0719408  29.2140000  31.1079408  61.3129408  28.9280000
  42.7309408  72.2139408  18.9580000  42.2289408  71.4239408  18.7610000
  42.6519408  72.7509408  18.1690000  33.0389408  87.9559408  28.5700000
  33.2659408  87.7619408  27.6600000  32.9049408  88.9029408  28.5870000
  38.8229408  79.2789408  28.8730000  39.0599408  78.7649408  29.6450000
  38.2279408  79.9509408  29.2050000  40.8119408  64.5099408  24.7060000
  39.9129408  64.5729408  25.0290000  40.7219408  64.4639408  23.7540000
  38.1589408  71.4079408  29.5170000  39.1069408  71.5379408  29.5250000
  37.9899408  70.8219408  30.2550000  37.4109408  68.2469408  22.5390000
  37.0039408  67.3889408  22.6570000  36.8979408  68.6629408  21.8460000
  35.9589408  62.4859408  29.6520000  35.4029408  62.4139408  30.4270000
  35.4749408  62.0279408  28.9650000  58.9339408  59.9049408  27.3680000
  59.3039408  60.6489408  27.8430000  59.4589408  59.8439408  26.5700000
  48.8269408  63.5309408  22.3500000  48.8589408  62.6169408  22.6340000
  49.3369408  63.5479408  21.5400000  43.0339408  74.4019408   3.2410000
  43.4299408  74.6769408   2.4150000  42.6019408  73.5729408   3.0360000
  44.6579408  61.6439408  24.3280000  45.2989408  61.5509408  25.0330000
  43.8909408  62.0299408  24.7510000  39.2199408  70.8319408  20.8010000
  38.2959408  70.9889408  20.6070000  39.2279408  70.5439408  21.7140000
  38.1889408  77.1529408  23.5900000  39.0689408  77.0679408  23.9560000
  37.9749408  78.0809408  23.6910000  37.2109408  68.0059408   5.3860000
  36.6419408  68.7579408   5.5510000  37.9689408  68.1489408   5.9520000
  60.1159408  68.1649408  11.4220000  60.1929408  67.2509408  11.1470000
  59.2939408  68.4639408  11.0340000  51.0649408  69.6399408   2.0140000
  51.5329408  69.0169408   2.5690000  51.5449408  69.6309408   1.1850000
  34.8949408  78.8529408   6.4910000  35.2919408  79.6979408   6.7040000
  35.4089408  78.5259408   5.7530000  30.8779408  89.1329408   1.2170000
  31.1779408  89.6449408   0.4660000  31.0379408  88.2229408   0.9670000
  36.9089408  64.5699408  15.4710000  36.4269408  65.1219408  14.8560000
  36.2819408  64.3849408  16.1700000  45.2509408  68.2789408  25.3330000
  44.5369408  67.6459408  25.4040000  45.7219408  68.2039408  26.1630000
  46.1519408  76.8349408   6.9130000  45.4469408  76.5409408   6.3350000
  45.7099408  77.0769408   7.7270000  31.6169408  69.6609408  25.2060000
  32.3259408  69.5369408  25.8370000  32.0529408  69.9679408  24.4120000
  45.4429408  60.1609408  13.2290000  46.1079408  59.5109408  13.4580000
  45.5879408  60.8799408  13.8430000  54.0269408  79.3799408  21.4100000
  54.2849408  78.4959408  21.6720000  53.1719408  79.5119408  21.8210000
  44.3959408  78.1949408  10.7400000  44.3709408  78.1429408  11.6950000
  44.2869408  77.2889408  10.4480000  35.1149408  64.0059408  26.8730000
  34.1869408  64.1409408  26.6820000  35.3489408  64.7299408  27.4530000
  34.5679408  72.7609408  23.3450000  34.5269408  73.7069408  23.4870000
  34.8839408  72.6679408  22.4460000  51.5419408  62.2789408  24.3060000
  51.1949408  62.1159408  23.4290000  51.4429408  61.4439408  24.7630000
  44.6329408  83.1429408  10.1660000  44.8209408  83.6079408   9.3500000
  44.7559408  82.2189408   9.9490000  45.3159408  72.0549408  16.3340000
  44.9349408  72.8129408  16.7780000  46.1729408  71.9419408  16.7450000
  52.2929408  77.8109408  23.8080000  52.1829408  77.0259408  24.3450000
  52.7159408  78.4419408  24.3890000  39.7159408  77.2639408   0.6440000
  40.4809408  76.8889408   0.2080000  40.0779408  77.7609408   1.3780000
  39.6429408  87.8269408  24.9720000  39.4569408  87.5769408  24.0670000
  40.3899408  88.4219408  24.9080000  37.2109408  71.8149408  24.3940000
  36.3699408  72.1359408  24.0660000  37.5599408  72.5409408  24.9100000
  30.1669408  68.8079408  20.3710000  29.8829408  68.0049408  20.8070000
  29.9809408  69.5029408  21.0020000  41.3649408  69.9299408  18.7550000
  40.7509408  69.2719408  18.4300000  41.2129408  69.9549408  19.7000000
  44.3869408  80.9349408   1.0510000  43.5169408  81.2199408   0.7720000
  44.8489408  80.7409408   0.2360000  40.7769408  69.9669408  15.3550000
  41.7099408  70.1599408  15.2610000  40.7469408  69.1889408  15.9110000
  33.5569408  67.1909408  26.0440000  34.3569408  66.6719408  26.1280000
  33.4109408  67.2549408  25.1000000  49.8279408  75.7489408  13.0870000
  50.5869408  75.7009408  13.6680000  49.2939408  74.9909408  13.3260000
  30.9909408  74.1799408  29.6390000  31.5389408  74.9439408  29.4570000
  30.9489408  74.1369408  30.5940000  41.3459408  73.1939408  28.8840000
  40.7059408  73.7409408  28.4290000  41.9039408  72.8469408  28.1880000
  58.4329408  61.3169408  17.7720000  58.3759408  60.3929408  18.0160000
  58.3789408  61.7879408  18.6040000  46.9629408  76.6139408  22.6300000
  46.8069408  77.5369408  22.8310000  47.8629408  76.5879408  22.3060000
  56.9299408  71.9079408   1.8610000  56.9209408  72.4829408   2.6270000
  57.6339408  71.2839408   2.0360000  45.8339408  63.3109408   1.4930000
  46.3929408  62.5349408   1.4550000  45.4889408  63.4019408   0.6050000
  30.8749408  63.4179408  23.9600000  30.5559408  62.5409408  23.7490000
  31.6379408  63.5389408  23.3940000  43.8929408  79.7199408  17.2500000
  43.8199408  80.5249408  16.7370000  44.7049408  79.3139408  16.9450000
  40.5189408  67.1779408  15.9270000  40.5439408  66.3239408  16.3590000
  40.1409408  66.9999408  15.0660000  45.9109408  87.6449408  20.9300000
  45.4609408  86.9469408  20.4540000  45.2979408  87.8989408  21.6190000
  45.5579408  64.1889408  26.1150000  44.8629408  64.8469408  26.1260000
  45.7909408  64.1009408  25.1910000  47.6369408  90.0739408  22.6510000
  47.4279408  89.3739408  22.0330000  47.3079408  89.7569408  23.4920000
  39.3779408  68.0839408  28.2570000  38.8019408  68.1769408  27.4980000
  40.1869408  68.5259408  28.0000000  37.9469408  67.0969408  19.7360000
  37.9239408  66.1409408  19.7090000  38.7869408  67.3059408  20.1460000
  46.8989408  89.9439408   5.6780000  46.7499408  89.2089408   6.2740000
  46.6159408  89.6199408   4.8230000  39.8299408  87.2289408   5.4010000
  38.9329408  87.4469408   5.1470000  40.3679408  87.5429408   4.6740000
  48.4289408  89.3959408  28.3290000  47.9429408  88.5779408  28.2260000
  48.7299408  89.3839408  29.2380000  31.1219408  66.0539408   9.6410000
  30.6489408  66.3209408   8.8530000  31.9209408  66.5809408   9.6320000
  41.1519408  82.9069408  20.7830000  41.1849408  81.9589408  20.9060000
  40.5209408  83.0349408  20.0740000  41.0869408  85.7069408   7.3250000
  40.8939408  86.1889408   8.1280000  40.7599408  86.2699408   6.6230000
  32.6749408  78.7829408  10.9760000  33.1839408  79.3299408  11.5740000
  33.0549408  78.9529408  10.1140000  43.9669408  75.5319408   5.7910000
  44.1179408  74.5939408   5.6770000  43.3829408  75.7699408   5.0710000
  32.1679408  64.6769408  12.0900000  31.6919408  65.0179408  11.3330000
  31.8439408  65.1909408  12.8290000  39.7219408  88.0699408   8.6160000
  39.4219408  88.0619408   7.7080000  39.1469408  88.6979408   9.0530000
  41.7279408  80.3879408  21.2710000  41.6209408  79.5149408  20.8940000
  42.3419408  80.2629408  21.9960000  58.0529408  85.8899408  12.2050000
  58.2489408  86.7309408  12.6180000  57.0989408  85.8779408  12.1250000
  43.8599408  66.7389408   2.4700000  43.0679408  67.2019408   2.1940000
  43.5509408  66.0939408   3.1060000  34.9999408  89.5199408  18.2440000
  35.1339408  89.6689408  19.1800000  34.6149408  90.3359408  17.9240000
  40.5059408  79.8669408   6.1100000  39.8559408  79.5139408   5.5030000
  39.9949408  80.3779408   6.7380000  43.0909408  65.1259408   4.6640000
  43.6829408  65.1169408   5.4160000  42.3979408  64.5079408   4.8970000
  33.3269408  84.6049408  19.3680000  34.2059408  84.2289408  19.3230000
  33.4169408  85.4729408  18.9750000  30.0379408  81.4779408   4.6990000
  30.9309408  81.1549408   4.5830000  29.4899408  80.8369408   4.2450000
  45.7609408  85.8819408   4.7460000  45.6409408  85.0999408   4.2060000
  44.9199408  85.9989408   5.1890000  44.2179408  80.3289408  13.1910000
  44.4609408  81.2159408  12.9250000  45.0449408  79.9189408  13.4450000
  47.6079408  81.4719408  21.4500000  47.1129408  82.1989408  21.8280000
  47.2049408  80.6879408  21.8230000  42.8429408  84.9729408  21.9030000
  42.4879408  84.2539408  21.3800000  43.3269408  85.5089408  21.2750000
  34.6779408  82.4899408  16.5850000  35.2769408  83.2359408  16.6160000
  35.2109408  81.7439408  16.8610000  35.7979408  81.3969408   6.7650000
  36.4539408  81.7799408   7.3470000  34.9819408  81.4349408   7.2640000
  47.4849408  87.6719408   7.7400000  46.6389408  87.2889408   7.9700000
  47.8719408  87.0489408   7.1250000  32.3099408  78.7869408   5.5240000
  31.6629408  78.6259408   6.2120000  33.1549408  78.6519408   5.9530000
  44.3059408  88.7819408   7.3720000  44.7559408  88.1469408   7.9280000
  43.9669408  88.2639408   6.6420000  54.3189408  84.7159408  14.1060000
  54.8969408  83.9829408  13.8980000  54.5489408  85.3919408  13.4680000
  36.4959408  78.9039408   2.3800000  35.9039408  79.5189408   1.9470000
  35.9969408  78.0889408   2.4350000  35.8519408  87.3879408  29.9390000
  35.2559408  87.5509408  29.2070000  35.3619408  86.8089408  30.5230000
  46.4369408  79.0669408  21.2430000  46.5039408  78.3559408  20.6060000
  45.6939408  79.5899408  20.9420000  37.2649408  83.0889408   3.3920000
  37.5729408  83.8519408   2.9040000  37.6459408  83.1919408   4.2640000
  40.3759408  83.4779408  17.1180000  39.6279408  83.2069408  17.6500000
  40.5139408  82.7509408  16.5100000  45.4449408  85.1009408  14.0140000
  46.2459408  85.2109408  13.5020000  45.0809408  84.2679408  13.7140000
  39.1669408  65.4379408   5.7480000  38.8509408  65.6709408   4.8750000
  39.4189408  64.5179408   5.6750000  34.2729408  80.1469408  12.5690000
  33.8439408  80.9559408  12.8460000  35.0339408  80.0699408  13.1450000
  33.2469408  75.4839408   3.2100000  33.6359408  76.1419408   2.6340000
  33.7999408  75.4919408   3.9910000  34.1789408  77.7809408   8.9290000
  34.2309408  78.1619408   8.0530000  33.5919408  77.0319408   8.8310000
  41.1639408  89.3629408  14.0990000  41.9599408  89.0219408  14.5070000
  40.8289408  90.0059408  14.7250000  41.2709408  89.4239408   0.7540000
  41.1439408  89.1009408  -0.1380000  40.7259408  90.2099408   0.8040000
  40.1639408  74.3359408  17.9330000  39.7059408  73.4989408  17.8530000
  40.9369408  74.2409408  17.3770000  36.7049408  84.8669408   7.0240000
  37.3139408  84.3839408   6.4660000  36.0519408  85.2189408   6.4190000
  30.7809408  77.7779408   3.0700000  31.3749408  77.8329408   3.8190000
  31.3059408  78.0689408   2.3250000  36.9129408  86.0559408  13.0170000
  36.7609408  86.9919408  13.1450000  37.8609408  85.9539408  13.1010000
  39.9689408  85.5049408  11.5150000  40.0609408  86.2039408  12.1630000
  39.5309408  85.9229408  10.7730000  42.8559408  62.0519408   9.6080000
  43.6339408  61.5559408   9.8640000  42.6389408  62.5739408  10.3800000
  40.9059408  82.2719408   1.9450000  40.8709408  81.3879408   1.5790000
  40.4339408  82.8129408   1.3120000  30.6149408  74.7429408   2.4330000
  29.9859408  75.4539408   2.5520000  31.4659408  75.1429408   2.6100000
  45.8529408  83.8829408   7.9390000  45.9139408  83.7729408   6.9900000
  46.7569408  84.0099408   8.2250000  37.6779408  75.6369408  18.2270000
  37.3809408  75.6059408  19.1360000  38.4549408  75.0779408  18.2080000
  34.3649408  82.5619408  10.9050000  33.8259408  83.0119408  11.5560000
  35.0559408  83.1889408  10.6910000  41.6299408  83.2589408  11.2250000
  41.9139408  83.2529408  10.3110000  40.9499408  83.9319408  11.2610000
  33.3079408  82.3489408  14.1740000  33.6449408  83.1049408  13.6930000
  33.8179408  82.3319408  14.9840000  50.0859408  63.0319408   1.4180000
  50.4329408  62.3479408   0.8450000  49.2249408  62.7079408   1.6830000
  58.1769408  62.4219408  20.1510000  57.3749408  62.2089408  20.6290000
  58.4289408  63.2859408  20.4760000  49.2209408  88.9019408   9.3070000
  48.6819408  89.2899408   9.9960000  48.5979408  88.6619408   8.6210000
  30.9919408  59.9949408  25.7370000  31.7769408  60.0659408  25.1940000
  31.2419408  60.3889408  26.5730000  30.7819408  76.6869408  15.9170000
  30.1779408  76.2529408  16.5200000  30.3069408  77.4619408  15.6180000
  36.7389408  84.1779408   9.9850000  36.8389408  85.0859408  10.2700000
  36.8689408  84.2079408   9.0370000  40.4329408  61.4439408  15.7220000
  40.5989408  61.4719408  16.6650000  40.7079408  62.3039408  15.4050000
  41.3089408  79.2199408  25.3400000  42.0399408  79.3309408  24.7320000
  41.4799408  79.8519408  26.0380000  33.3309408  79.3729408  18.2010000
  32.4419408  79.5659408  18.5000000  33.8949408  79.6769408  18.9110000
  56.3379408  68.5209408  14.7070000  55.9319408  69.3879408  14.7270000
  55.5999408  67.9109408  14.7000000  33.1059408  81.9459408   8.1800000
  33.4189408  82.7029408   8.6760000  32.1519408  82.0229408   8.2010000
  45.4369408  83.2539408  20.0090000  46.0059408  83.1119408  19.2530000
  45.0009408  82.4129408  20.1430000  37.0619408  81.4499408   9.2770000
  37.2629408  82.2119408   9.8210000  36.5489408  80.8769408   9.8470000
  42.0659408  88.8869408   9.7040000  41.2279408  88.5389408   9.3980000
  42.5209408  89.1529408   8.9050000  41.2699408  86.0949408  16.5260000
  41.8939408  86.0249408  15.8040000  41.2699408  85.2259408  16.9290000
  40.8659408  78.4719408   2.7640000  40.6719408  79.4039408   2.8690000
  41.5619408  78.2989408   3.3990000  43.6439408  60.4429408   1.8470000
  42.8629408  60.2199408   1.3410000  43.6489408  61.3999408   1.8730000
  33.1739408  60.5829408   4.5740000  34.1289408  60.6499408   4.5680000
  32.8779408  61.4079408   4.9580000  39.4209408  81.4549408   7.9740000
  38.8169408  81.4819408   8.7160000  40.2109408  81.8929408   8.2920000
  58.8549408  83.9129408  10.4620000  58.1329408  83.2899408  10.3720000
  58.5459408  84.5469408  11.1090000  39.8059408  75.8759408  21.7940000
  38.8959408  76.1509408  21.9020000  39.7489408  74.9669408  21.5000000
  37.9939408  81.3219408  14.6600000  38.8919408  81.3319408  14.9910000
  37.9779408  82.0019408  13.9870000  55.4639408  85.1709408   8.5830000
  54.5769408  85.4189408   8.3240000  55.9009408  84.9499408   7.7600000
  54.4759408  80.8279408  19.0240000  55.3199408  81.0919408  18.6570000
  54.7019408  80.2359408  19.7420000  38.2409408  79.7249408  25.2630000
  38.0479408  79.1849408  26.0300000  39.1959408  79.7239408  25.2030000
  42.9509408  61.3049408  12.5350000  43.5739408  60.6049408  12.7320000
  42.1069408  60.9639408  12.8300000  59.8429408  86.8959408   8.9490000
  59.2369408  86.1979408   8.6960000  60.4319408  86.4839408   9.5810000
  43.2739408  86.0209408   5.5640000  43.0779408  85.8549408   6.4860000
  42.5129408  85.6839408   5.0920000  43.9679408  83.1959408  12.7510000
  43.0609408  83.1179408  12.4530000  44.4749408  83.3119408  11.9480000
  37.9659408  83.2009408  24.6000000  38.6309408  82.7009408  24.1270000
  37.9549408  84.0549408  24.1660000  58.8189408  88.9629408  19.5480000
  59.3499408  88.7979408  20.3270000  57.9169408  88.8389408  19.8420000
  37.1999408  62.1849408  19.7970000  37.7519408  61.4189408  19.6400000
  36.4489408  61.8439408  20.2840000  46.6659408  72.2829408   1.1970000
  46.1439408  73.0379408   0.9240000  46.2319408  71.9649408   1.9890000
  41.4439408  75.8639408  23.9440000  42.0879408  76.3889408  23.4680000
  40.7859408  75.6379408  23.2870000  44.5009408  72.8519408   5.8720000
  44.3729408  72.6739408   6.8040000  43.6179408  72.8409408   5.5020000
  40.8959408  79.7499408   9.9370000  40.1039408  79.8069408  10.4710000
  41.6099408  79.9329408  10.5480000  49.0259408  74.6979408   5.6060000
  49.1789408  75.5409408   6.0320000  48.8219408  74.0999408   6.3250000
  36.7689408  88.4729408  14.2330000  37.3599408  89.2059408  14.4070000
  35.9639408  88.6979408  14.6990000  39.7699408  82.6009408  26.6800000
  39.2829408  82.6389408  25.8560000  39.7329408  83.4939408  27.0220000
  57.3529408  60.3099408  12.8330000  57.5099408  59.6729408  13.5300000
  57.9369408  61.0399408  13.0390000  42.1129408  78.3489408   7.7370000
  41.7449408  78.5769408   8.5910000  41.5649408  78.8179408   7.1070000
  54.6629408  79.5749408  12.4850000  54.9049408  78.8659408  13.0800000
  54.1909408  79.1409408  11.7740000  31.4539408  89.7109408  15.8930000
  31.4329408  90.6619408  16.0040000  32.2849408  89.5399408  15.4500000
  36.8329408  80.5419408  17.8900000  37.4509408  79.8449408  17.6710000
  36.2749408  80.1639408  18.5700000  55.2199408  74.8659408   1.3530000
  55.3179408  74.0859408   0.8060000  54.4369408  75.3009408   1.0120000
  48.8679408  87.6099408   3.3490000  49.7269408  87.3279408   3.6620000
  48.2529408  87.2769408   4.0020000  38.3579408  64.1779408   1.8600000
  38.4489408  64.8209408   2.5630000  37.5369408  63.7239408   2.0540000
  41.2019408  88.7629408   3.4690000  41.2119408  89.5939408   3.9450000
  41.6049408  88.9659408   2.6240000  36.1329408  83.5059408  20.1000000
  36.3269408  83.2889408  19.1880000  36.9599408  83.8419408  20.4480000
  40.2109408  88.4339408  11.9620000  41.0079408  88.2959408  11.4500000
  40.5229408  88.6039408  12.8510000  47.3879408  82.3639408  27.4260000
  47.6389408  82.8729408  28.1970000  48.1209408  82.4709408  26.8190000
  55.9239408  82.7609408  13.2040000  55.7279408  82.7439408  12.2670000
  56.0819408  81.8459408  13.4340000  49.3099408  86.6769408  14.0320000
  49.6109408  86.8749408  14.9190000  49.3619408  85.7229408  13.9680000
  33.3539408  84.7089408   9.0660000  33.7559408  85.5449408   9.3010000
  32.5179408  84.9489408   8.6650000  31.4129408  86.7549408   0.3960000
  32.1889408  87.0679408  -0.0690000  31.2349408  85.8959408   0.0140000
  59.6089408  87.8679408  15.3230000  60.1049408  87.1339408  14.9590000
  60.2649408  88.5469408  15.4810000  52.3659408  74.6299408   8.6880000
  51.7399408  74.6659408   9.4110000  53.1379408  75.0919408   9.0160000
  31.5119408  79.0599408  13.6060000  30.8219408  79.4449408  13.0660000
  32.0049408  78.5029408  13.0030000  33.9449408  86.8669408  18.1460000
  33.7629408  86.8199408  17.2080000  34.4529408  87.6719408  18.2510000
  43.2799408  82.0519408  15.6120000  42.3279408  81.9589408  15.6370000
  43.5199408  81.8259408  14.7140000  42.9559408  81.3659408   6.3640000
  43.4859408  81.8059408   5.6990000  42.4029408  80.7609408   5.8690000
  33.4409408  66.1809408   1.9050000  34.0029408  66.8479408   1.5100000
  33.9759408  65.7989408   2.6010000  47.0119408  83.5979408   0.0990000
  47.4669408  84.3679408   0.4400000  46.1409408  83.9179408  -0.1370000
  37.1949408  82.4749408  28.1130000  36.6079408  82.3649408  27.3650000
  38.0739408  82.3999408  27.7400000  48.2589408  72.5979408   7.4360000
  47.7069408  71.9699408   6.9700000  47.6589408  73.0499408   8.0290000
  30.1369408  63.5589408   5.8370000  29.9919408  62.6449408   5.5950000
  30.0729408  63.5669408   6.7920000  45.3399408  80.8529408  28.1340000
  44.7079408  81.5289408  27.8920000  46.1799408  81.1839408  27.8140000
  49.9039408  60.2909408  26.3150000  49.3069408  60.0529408  27.0240000
  50.2959408  61.1169408  26.5980000  56.3759408  83.1479408  22.1470000
  55.9069408  83.8409408  21.6830000  57.2419408  83.1299408  21.7400000
  38.6959408  64.9359408  26.2190000  38.5659408  64.8349408  27.1620000
  37.9669408  65.4869408  25.9330000  35.0549408  60.9999408  27.6170000
  35.2369408  61.8089408  27.1400000  34.9239408  60.3429408  26.9330000
  42.6159408  82.0489408  24.5270000  42.7129408  81.7699408  25.4380000
  43.1399408  81.4229408  24.0270000  34.7479408  86.4299408   2.0810000
  34.8309408  85.7089408   2.7050000  33.9279408  86.8609408   2.3190000
  39.2759408  86.4629408  14.7030000  39.7309408  86.2569408  15.5190000
  39.1089408  87.4049408  14.7520000  53.3719408  89.3539408  16.9710000
  53.3079408  88.3989408  16.9860000  52.9949408  89.6059408  16.1290000
  46.2559408  83.4489408  22.4580000  45.9049408  83.5529408  21.5740000
  45.4959408  83.5559408  23.0320000  36.9949408  75.9949408  20.7340000
  36.4209408  75.7369408  21.4560000  36.9939408  76.9519408  20.7580000
  46.4109408  87.9309408  16.0400000  46.7929408  88.4529408  16.7440000
  46.9819408  88.0879408  15.2870000  44.1419408  84.1589408  24.0840000
  43.6309408  83.3779408  24.2940000  43.5819408  84.6599408  23.4910000
  43.5379408  76.9969408  22.3460000  44.1009408  76.3869408  22.8230000
  43.4289408  76.5979408  21.4830000  43.4829408  79.4799408  23.5240000
  43.6019408  78.6709408  23.0260000  44.1959408  79.4769408  24.1620000
  35.5179408  80.8639408   0.6340000  34.6129408  80.9029408   0.3240000
  35.8689408  81.7369408   0.4600000  33.9199408  83.7329408  27.9040000
  33.7749408  82.7969408  27.7640000  34.6069408  83.7729408  28.5690000
  53.3409408  85.3679408  26.2690000  53.8739408  85.7849408  25.5910000
  52.6439408  85.9989408  26.4470000  51.0999408  87.1969408  26.2780000
  50.7519408  87.3389408  25.3980000  51.3499408  88.0699408  26.5810000
  44.6979408  85.7839408  19.6430000  44.8279408  85.7939408  18.6940000
  44.6369408  84.8559408  19.8670000  41.6579408  89.4879408  25.1230000
  41.5199408  90.2759408  25.6490000  42.5939408  89.3049408  25.2060000
  35.6269408  85.5319408  22.0670000  36.1349408  85.9269408  21.3580000
  35.2669408  84.7309408  21.6870000  38.4599408  62.5539408  24.9290000
  38.0919408  61.8119408  25.4080000  38.4689408  63.2689408  25.5650000
  33.5699408  80.9729408  27.9310000  32.6959408  80.8599408  27.5580000
  34.1639408  80.6609408  27.2500000  41.6979408  80.0789408  29.7730000
  40.8099408  79.8989408  29.4640000  42.0089408  79.2409408  30.1130000
  40.6369408  81.0749408  15.7480000  41.0509408  80.3259408  16.1760000
  40.8889408  80.9959408  14.8280000  37.8009408  77.6069408  26.9660000
  37.9509408  78.0929408  27.7770000  38.6709408  77.3129408  26.6970000
  44.6019408  88.8039408  23.5100000  45.1489408  88.3629408  24.1610000
  44.6489408  89.7299408  23.7450000  38.0119408  85.6129408  29.1090000
  37.3469408  85.9979408  29.6800000  37.5689408  85.4959408  28.2690000
  47.2359408  85.8399408  24.2300000  47.9919408  85.7569408  23.6490000
  46.6439408  85.1399408  23.9550000  46.3829408  85.0279408  16.5230000
  45.9809408  84.9789408  15.6560000  46.6939408  85.9299408  16.5930000
  29.8979408  85.6919408  22.9550000  29.7849408  84.8959408  23.4740000
  30.8379408  85.7319408  22.7780000  38.7329408  85.2859408   2.7840000
  39.4529408  85.3559408   2.1580000  38.2929408  86.1349408   2.7390000
  56.7709408  63.6649408  22.7270000  56.7729408  62.8369408  23.2070000
  57.3549408  64.2339408  23.2270000  35.4859408  77.0279408  25.4590000
  35.3769408  76.1209408  25.7470000  36.3439408  77.2849408  25.7970000
  39.9189408  63.5539408  21.8240000  39.1149408  63.4609408  22.3350000
  40.5089408  62.8899408  22.1800000  38.4839408  72.6569408  12.7750000
  38.7579408  73.2109408  12.0450000  39.2489408  72.1129408  12.9640000
  34.8689408  82.0059408   4.4930000  35.4839408  82.3369408   3.8380000
  35.3879408  81.9349408   5.2950000  31.1839408  83.8679408   2.2820000
  31.7039408  83.3719408   1.6500000  31.6219408  83.7219408   3.1200000
  31.2759408  80.9209408  22.3260000  31.5259408  80.2529408  21.6880000
  31.9619408  81.5849408  22.2600000  37.4129408  86.2019408  20.0570000
  37.4249408  86.6489408  19.2110000  38.2419408  86.4469408  20.4690000
  40.8449408  62.1909408  28.1290000  39.9649408  61.9919408  27.8090000
  40.7209408  62.4099408  29.0520000  42.1609408  81.0939408  27.1720000
  41.3539408  81.5889408  27.0280000  42.4389408  81.3399408  28.0540000
  51.6459408  85.8579408  19.2480000  51.8839408  85.4889408  18.3980000
  51.1379408  85.1669408  19.6750000  31.9099408  86.0429408  26.4380000
  31.0299408  86.3809408  26.2760000  31.8099408  85.4669408  27.1960000
  56.5009408  83.4099408   3.8900000  57.2679408  83.2959408   3.3290000
  56.1529408  84.2679408   3.6490000  42.1069408  88.3369408  22.1520000
  42.8629408  88.3479408  22.7390000  41.9139408  89.2609408  21.9920000
  36.9049408  89.6589408  24.4020000  37.4049408  89.1249408  25.0190000
  37.5369408  89.8999408  23.7250000  45.8789408  62.1039408  21.6990000
  45.5149408  61.9559408  22.5720000  46.7829408  61.7959408  21.7610000
  38.8949408  81.6709408  19.8570000  38.2309408  81.5909408  19.1720000
  38.9859408  80.7849408  20.2080000  49.3409408  79.3989408  20.3370000
  49.0289408  79.1119408  19.4790000  48.5439408  79.5879408  20.8320000
  44.5349408  63.3569408  28.7370000  44.1719408  62.4879408  28.5610000
  45.0539408  63.5609408  27.9590000  47.1019408  75.7249408  25.9070000
  47.7749408  76.4049408  25.8650000  46.2939408  76.1989408  26.1020000
  43.0649408  61.5539408  20.0000000  43.9649408  61.6039408  20.3230000
  42.9399408  60.6309408  19.7800000  38.2529408  61.2669408  28.1430000
  37.5959408  61.4079408  28.8250000  38.1889408  60.3329408  27.9390000
  40.1359408  82.0139408  23.1660000  40.2959408  82.4989408  22.3560000
  40.9959408  81.9489408  23.5810000  48.4869408  68.0279408   1.6070000
  49.1999408  68.3819408   2.1380000  48.0509408  68.7999408   1.2450000
  45.1319408  77.2609408  26.3960000  45.2409408  77.6919408  27.2440000
  44.5449408  76.5269408  26.5740000  37.2789408  86.4109408  26.2950000
  36.3539408  86.2849408  26.0820000  37.7199408  86.4259408  25.4460000
  44.4529408  80.9099408   3.7780000  44.3679408  80.7669408   2.8350000
  45.0229408  80.2019408   4.0770000  37.1399408  87.5469408  17.6840000
  36.8289408  87.2759408  16.8200000  36.5409408  88.2459408  17.9460000
  55.0939408  63.0129408  25.4040000  54.7599408  62.6939408  24.5660000
  55.6369408  62.2969408  25.7340000  45.7979408  88.7229408   3.2530000
  45.6619408  87.7969408   3.0530000  45.1299408  89.1799408   2.7420000
  39.0859408  61.1759408   1.1750000  38.4019408  60.5059408   1.1510000
  38.6729408  61.9539408   0.8020000  38.0329408  89.1679408  10.5370000
  38.6119408  88.8459408  11.2270000  37.5109408  89.8489408  10.9610000
  42.8329408  76.8609408  13.8650000  42.4649408  75.9809408  13.9370000
  42.1939408  77.3459408  13.3420000  38.4229408  88.5869408  27.7970000
  38.0969408  88.0029408  27.1120000  38.0209408  88.2599408  28.6020000
  43.1219408  75.2349408  26.3590000  42.9999408  74.2859408  26.3360000
  43.2029408  75.4879408  25.4390000  35.5019408  60.1759408  20.8970000
  35.1519408  60.8029408  21.5300000  35.3639408  59.3209408  21.3060000
  44.6709408  67.7959408   5.3550000  45.3629408  67.6749408   4.7050000
  44.3999408  66.9069408   5.5840000  42.2429408  66.3459408   7.8770000
  43.0639408  65.9189408   7.6340000  41.5769408  65.9019408   7.3520000
  40.7739408  66.2109408  29.9660000  41.1209408  66.8889408  30.5450000
  40.1539408  66.6719408  29.4000000  54.9609408  75.1169408   6.4150000
  54.0719408  75.3439408   6.1410000  55.4919408  75.8699408   6.1570000
  49.3769408  67.5459408  12.7920000  49.5639408  67.9789408  11.9590000
  48.9799408  68.2279408  13.3340000  59.9389408  72.9329408  20.1570000
  59.2409408  73.5489408  19.9330000  59.5489408  72.0699408  20.0180000
  53.4369408  68.0999408  14.6000000  53.0629408  68.4679408  13.7990000
  53.0709408  67.2169408  14.6520000  57.4789408  63.9939408  10.6530000
  57.3369408  64.2939408   9.7560000  57.7139408  63.0699408  10.5640000
  53.8419408  67.9109408  11.1330000  53.2649408  68.4849408  10.6300000
  54.5029408  67.6239408  10.5030000  54.1399408  61.3499408  10.9420000
  53.2239408  61.4689408  11.1920000  54.1099408  60.7419408  10.2040000
  30.0609408  66.7279408  17.5830000  30.7789408  67.3319408  17.7720000
  29.7179408  67.0209408  16.7390000  49.3879408  72.0239408   1.7080000
  48.4449408  72.1189408   1.5730000  49.5609408  71.0969408   1.5410000
  48.6229408  64.8899408  12.5080000  49.1929408  64.4829408  11.8550000
  48.9969408  65.7609408  12.6440000  58.2209408  83.3229408  14.8680000
  57.5639408  83.4529408  14.1850000  59.0359408  83.1649408  14.3900000
  57.7609408  62.7849408   3.9490000  58.2159408  62.0179408   3.6010000
  57.0409408  62.9349408   3.3370000  45.8699408  67.0169408   0.6600000
  45.2029408  66.8519408   1.3270000  46.4569408  67.6569408   1.0610000
  49.5339408  77.2399408  26.6460000  50.2919408  76.8729408  26.1910000
  49.5379408  76.8119408  27.5020000  55.9399408  65.4359408  14.7680000
  56.1589408  65.8389408  13.9280000  55.7629408  64.5199408  14.5560000
  55.4509408  66.9699408   5.4990000  54.8859408  66.2069408   5.3780000
  55.7639408  67.1789408   4.6180000  30.4629408  82.8909408  13.2580000
  30.2129408  81.9829408  13.0880000  31.3599408  82.8359408  13.5870000
  44.7979408  71.2589408  20.4950000  44.1209408  71.7319408  20.0110000
  45.3779408  71.9449408  20.8280000  48.4659408  83.8039408   9.1880000
  48.8379408  84.6159408   8.8460000  48.9149408  83.1109408   8.7040000
  46.7079408  67.0059408   3.8860000  47.1969408  67.5149408   3.2390000
  46.7849408  66.0999408   3.5860000  35.6159408  63.9159408  17.9620000
  36.1299408  63.4149408  18.5940000  35.1099408  63.2559408  17.4870000
  55.2969408  65.6169408  19.7390000  56.1719408  65.2819408  19.5430000
  54.9219408  65.8239408  18.8830000  40.5079408  67.1349408  20.9140000
  41.3479408  66.7929408  20.6060000  40.6289408  67.2549408  21.8560000
  35.4309408  68.9249408  13.3460000  34.5449408  68.8439408  13.6980000
  35.4069408  69.7229408  12.8170000  59.5329408  60.6999408   3.3760000
  60.1959408  60.7629408   2.6890000  59.1429408  59.8339408   3.2540000
  49.1209408  71.3209408  13.8360000  48.7309408  71.3989408  12.9650000
  48.7629408  72.0599408  14.3270000  53.4509408  76.6139408  17.9200000
  53.0099408  77.2459408  17.3520000  52.8429408  76.4799408  18.6470000
  31.2429408  85.3819408  11.0890000  31.8839408  84.7989408  10.6820000
  30.4409408  84.8619408  11.1370000  30.5589408  63.4369408   2.1060000
  30.9039408  63.9419408   1.3700000  29.6199408  63.3699408   1.9320000
  55.4529408  83.0009408   6.3470000  56.1639408  82.5919408   6.8410000
  55.8259408  83.1649408   5.4810000  49.8289408  72.1619408   4.8400000
  50.2879408  72.3219408   5.6640000  49.5549408  73.0299408   4.5450000
  48.0169408  67.0069408  27.2190000  47.3259408  66.5609408  27.7080000
  48.0999408  66.5049408  26.4080000  55.5609408  71.1319408  15.4750000
  55.1189408  70.5969408  16.1340000  54.8589408  71.6419408  15.0700000
  31.6959408  74.5629408   5.6540000  31.0739408  74.5129408   4.9270000
  31.7619408  73.6639408   5.9750000  56.7429408  63.6139408  17.8620000
  56.4659408  64.0829408  17.0750000  56.0469408  62.9769408  18.0200000
  51.6259408  79.4869408   1.2030000  52.4039408  79.0829408   1.5860000
  51.3859408  80.1789408   1.8190000  49.8959408  67.7829408  29.2340000
  49.4559408  67.5179408  28.4260000  49.2739408  67.5689408  29.9280000
  59.2179408  83.7659408   5.8380000  59.3659408  84.3189408   5.0710000
  59.4309408  82.8809408   5.5410000  51.2669408  60.7559408   8.5830000
  51.3999408  61.0999408   9.4660000  50.5919408  60.0849408   8.6870000
  54.1839408  64.4299408  29.2750000  53.9199408  65.0219408  28.5710000
  53.4349408  64.4179408  29.8720000  57.0209408  60.6149408  23.3560000
  56.1119408  60.3729408  23.1770000  57.4589408  59.7839408  23.5400000
  57.0549408  80.3509408  13.5330000  56.2059408  80.0659408  13.1960000
  57.4329408  79.5649408  13.9270000  53.3629408  65.0449408  11.8150000
  53.7649408  65.8809408  11.5770000  54.1039408  64.4649408  11.9930000
  54.9759408  61.0289408  20.1130000  54.6729408  61.3969408  19.2830000
  54.4759408  61.4979408  20.7810000  52.5319408  83.9129408  16.2690000
  53.3199408  83.8259408  16.8050000  52.8589408  84.0669408  15.3830000
  56.3219408  67.4929408  23.9420000  56.3019408  66.7529408  24.5480000
  57.1049408  67.9849408  24.1900000  30.1739408  71.8329408  11.6060000
  30.4409408  71.6049408  12.4960000  30.8999408  72.3529408  11.2630000
  55.7369408  79.1459408   8.1800000  54.8499408  79.1279408   8.5390000
  56.1869408  78.4239408   8.6170000  46.6539408  69.5689408   7.1000000
  46.2859408  69.1019408   6.3490000  47.5579408  69.2609408   7.1550000
  48.3429408  85.7469408   6.0430000  48.8659408  84.9999408   5.7510000
  47.5969408  85.7659408   5.4440000  34.7929408  85.8129408   5.2480000
  34.3529408  86.6369408   5.4600000  34.0799408  85.1949408   5.0880000
  53.2419408  83.1659408  10.4920000  52.9709408  83.7249408   9.7630000
  52.5509408  82.5069408  10.5570000  55.7379408  86.5139408  16.0000000
  55.5399408  85.6189408  15.7260000  54.8859408  86.8929408  16.2160000
  30.0309408  66.3349408   7.2890000  29.4529408  65.8939408   6.6650000
  30.7089408  66.7369408   6.7450000  35.4109408  61.6389408  14.1010000
  36.3529408  61.5459408  13.9540000  35.1199408  62.2449408  13.4200000
  50.9789408  71.3509408  28.1040000  51.4849408  70.7389408  28.6380000
  51.4719408  71.4199408  27.2860000  42.0409408  63.7889408   0.3090000
  41.4489408  64.5119408   0.1020000  42.7159408  63.8299408  -0.3690000
  54.4599408  62.0869408  17.5660000  54.6979408  62.1839408  16.6440000
  53.9199408  61.2969408  17.5930000  38.5499408  64.3989408  19.4280000
  39.1569408  64.0959408  20.1040000  37.8149408  63.7869408  19.4750000
  57.6739408  67.2299408  28.4930000  58.1929408  68.0039408  28.2730000
  57.5139408  66.7999408  27.6530000  51.2339408  61.7299408  11.0500000
  51.0569408  61.7479408  11.9900000  51.0979408  62.6329408  10.7630000
  52.1169408  66.2239408  16.4610000  51.5759408  66.8179408  16.9810000
  51.6809408  66.1839408  15.6100000  47.0459408  69.7769408  30.0950000
  46.9329408  70.7139408  30.2500000  47.3599408  69.7189408  29.1920000
  57.9949408  61.5439408   9.2960000  57.6689408  60.7739408   9.7610000
  57.5859408  61.4939408   8.4320000  34.1849408  79.2609408  15.5620000
  33.2749408  79.4589408  15.3410000  34.2369408  79.3929408  16.5080000
  51.5719408  76.0879408  19.4610000  51.2589408  76.5549408  20.2350000
  52.0279408  75.3219408  19.8100000  54.5889408  72.8039408  18.0590000
  55.3309408  72.2919408  17.7360000  54.9889408  73.5189408  18.5550000
  32.6959408  64.0899408  21.8710000  32.3059408  63.5869408  21.1560000
  32.9999408  64.8979408  21.4560000  59.8669408  82.4849408  23.7190000
  60.5199408  82.0109408  23.2050000  59.1229408  82.5889408  23.1250000
  52.9719408  89.7709408   6.6800000  52.3179408  90.1079408   7.2920000
  53.6439408  89.3789408   7.2390000  60.0319408  69.3559408   7.3470000
  59.0959408  69.2539408   7.5190000  60.1719408  68.9109408   6.5120000
  42.1399408  67.4559408  12.2220000  43.0799408  67.4309408  12.0430000
  41.9669408  66.6499408  12.7080000  52.2569408  72.3619408  11.4830000
  51.7519408  73.1539408  11.2990000  52.2079408  71.8529408  10.6740000
  57.9939408  68.9349408  18.7130000  58.8849408  68.7869408  19.0320000
  57.4419408  68.4079408  19.2910000  32.6369408  68.9269408   8.6340000
  33.0599408  69.1289408   9.4690000  31.7709408  69.3279408   8.7010000
  31.9669408  68.2519408  18.4270000  32.8179408  68.6559408  18.5950000
  31.4089408  68.5619408  19.1400000  57.5039408  65.9579408  12.6760000
  57.6349408  65.1329408  12.2080000  57.4329408  66.6169408  11.9850000
  36.0659408  63.5049408   3.3350000  35.7129408  64.3689408   3.5490000
  35.3759408  63.0859408   2.8200000  50.1629408  63.2489408   7.1740000
  50.7889408  62.6829408   7.6270000  49.4289408  63.3299408   7.7820000
  46.8479408  89.6619408  10.6200000  46.3209408  89.0759408  11.1630000
  46.2789408  89.8849408   9.8840000  35.8869408  70.2809408   5.3640000
  35.6359408  70.8369408   6.1020000  35.8729408  70.8659408   4.6070000
  52.0509408  87.8479408  21.3780000  52.2919408  87.3129408  20.6220000
  52.4079408  88.7149408  21.1820000  56.0049408  88.4509408  20.5770000
  55.3879408  87.8689408  20.1320000  55.6789408  89.3319408  20.3920000
  45.9519408  75.9449408   0.6750000  45.0699408  75.6069408   0.8280000
  46.3909408  75.2529408   0.1800000  52.1649408  67.7679408   8.6350000
  53.0789408  67.4839408   8.6030000  52.1279408  68.5239408   8.0490000
  54.3869408  70.8979408   7.2380000  54.6949408  71.3449408   8.0260000
  55.0989408  71.0059408   6.6070000  50.4669408  87.5979408  16.5020000
  50.0149408  88.4079408  16.7400000  49.9129408  86.9009408  16.8520000
  47.1799408  84.4859408  11.5940000  47.1339408  84.0919408  10.7230000
  47.8769408  85.1389408  11.5260000  57.1109408  67.9229408  10.7590000
  56.6699408  68.6599408  11.1820000  57.2859408  68.2279408   9.8680000
  54.4309408  68.2329408   0.1660000  54.9999408  68.8329408  -0.3160000
  54.9499408  67.9689408   0.9260000  57.6649408  77.8339408  20.4340000
  57.0099408  77.9209408  21.1270000  57.7929408  78.7259408  20.1110000
  50.4459408  65.7249408   5.9510000  50.6899408  64.9389408   6.4390000
  51.2809408  66.0999408   5.6680000  34.0989408  77.2339408  20.9040000
  33.5579408  77.6299408  20.2210000  34.7849408  77.8809408  21.0720000
  53.0409408  85.6989408   7.7480000  52.2169408  86.1149408   7.4950000
  53.0589408  84.8799408   7.2530000  45.0709408  63.1099408  11.9730000
  45.9309408  62.7019408  11.8700000  44.5769408  62.4959408  12.5170000
  31.2549408  66.8109408  14.1630000  30.3669408  66.7379408  14.5100000
  31.5479408  67.6809408  14.4330000  31.2039408  78.3319408   8.1590000
  31.7869408  78.4599408   8.9080000  30.4139408  77.9419408   8.5330000
  40.8509408  78.0429408  20.5640000  41.5169408  77.8769408  19.8970000
  40.6929408  77.1879408  20.9640000  55.3289408  73.5029408  11.5810000
  55.0329408  74.2309408  12.1270000  56.1189408  73.1829408  12.0170000
  57.1119408  87.8559408  14.3000000  56.6299408  87.3489408  14.9530000
  58.0099408  87.8809408  14.6300000  54.7879408  62.1149408   5.8990000
  54.1839408  61.3719408   5.9120000  55.6579408  61.7159408   5.9040000
  49.4179408  75.1679408  16.0930000  50.2329408  74.6729408  16.0060000
  49.6999408  76.0539408  16.3210000  57.7659408  73.5989408   3.8470000
  57.7389408  73.8419408   4.7720000  57.9009408  74.4269408   3.3850000
  35.1689408  74.5189408  16.3780000  35.8409408  74.4369408  17.0540000
  34.4199408  74.9079408  16.8290000  52.8469408  74.3839408  29.2860000
  53.0729408  75.2939408  29.4810000  52.3399408  74.4319408  28.4760000
  54.5049408  63.7859408   8.3370000  54.6659408  63.1259408   7.6630000
  55.3689408  63.9629408   8.7110000  57.8919408  75.9599408   1.8140000
  57.0629408  75.4949408   1.6950000  58.2699408  76.0039408   0.9360000
  51.4209408  65.9589408  13.7260000  50.7449408  66.4539408  13.2630000
  52.0389408  65.6999408  13.0420000  34.4059408  70.8699408   1.0480000
  33.6999408  71.4429408   1.3470000  35.1239408  71.0339408   1.6600000
  47.9489408  77.1749408  11.2960000  47.9059408  76.2389408  11.0990000
  48.8179408  77.2979408  11.6800000  55.4809408  71.9639408   9.4060000
  55.1199408  72.5119408  10.1030000  56.2799408  71.5939408   9.7810000
  57.2379408  64.9699408   8.0610000  57.3909408  65.8909408   8.2740000
  57.5609408  64.8749408   7.1650000  54.1389408  68.9709408  24.3760000
  53.4629408  68.4299408  23.9690000  54.9209408  68.4189408  24.3760000
  46.7859408  78.4209408   1.6810000  46.7219408  77.5299408   1.3370000
  47.4129408  78.8559408   1.1040000  52.8489408  73.5719408  19.9600000
  53.5609408  73.2709408  19.3950000  52.1069408  73.0129408  19.7290000
  53.2589408  60.4689408  14.2250000  53.7039408  59.7619408  13.7580000
  53.9489408  61.1049408  14.4120000  38.5139408  78.9249408   4.6940000
  38.4449408  77.9949408   4.9100000  37.8739408  79.0569408   3.9950000
  30.9149408  72.1979408   3.5130000  30.7669408  72.8599408   2.8380000
  30.2449408  71.5339408   3.3490000  46.2619408  65.6629408  11.8050000
  47.1559408  65.3529408  11.9450000  45.7269408  64.8699408  11.8260000
  55.2609408  62.5219408  15.1500000  56.1599408  62.1979408  15.2140000
  55.1129408  62.6349408  14.2110000  56.0369408  69.7699408  12.4210000
  56.3529408  69.1019408  13.0300000  55.0999408  69.8379408  12.6050000
  53.0209408  68.4339408   3.5050000  53.2149408  69.3699408   3.4500000
  53.4379408  68.1499408   4.3190000  48.3969408  61.7669408   4.5070000
  48.1719408  61.0319408   5.0770000  49.3529408  61.8069408   4.5340000
  57.9889408  69.2129408  25.4190000  58.5799408  69.2639408  26.1700000
  57.4759408  70.0199408  25.4620000  59.4079408  80.4649408  12.4830000
  58.5159408  80.4729408  12.8300000  59.2959408  80.4509408  11.5330000
  49.9099408  68.3669408  10.0660000  49.9099408  69.2509408   9.6990000
  50.6139408  67.9149408   9.6030000  52.6919408  71.3699408  26.1520000
  52.7639408  70.5559408  25.6530000  53.5839408  71.5479408  26.4510000
  52.3429408  77.8229408  13.7280000  52.4789408  78.5569408  14.3260000
  51.4959408  77.9999408  13.3180000  48.5539408  78.9259408  24.6820000
  48.7939408  78.2999408  25.3660000  49.3529408  79.4279408  24.5250000
  30.9789408  71.7839408   6.4660000  30.8059408  71.5689408   5.5490000
  30.8379408  70.9619408   6.9360000  48.5449408  66.2349408   8.9460000
  48.6869408  66.3049408   8.0020000  48.8589408  67.0669408   9.2990000
  47.5829408  62.1169408  11.6990000  47.5359408  61.9249408  12.6360000
  47.4419408  61.2719408  11.2740000  53.0879408  66.0449408   2.2860000
  53.1179408  66.9629408   2.5550000  52.5769408  66.0479408   1.4770000
  49.4299408  89.0179408   0.8690000  50.3869408  89.0099408   0.8630000
  49.1899408  88.4979408   1.6360000  53.0929408  64.5809408  26.6170000
  53.7929408  64.1529408  26.1250000  52.4559408  64.8409408  25.9520000
  59.4029408  81.3029408  16.8030000  59.1189408  82.1149408  16.3830000
  60.2919408  81.4879408  17.1050000  59.9999408  63.3119408   8.7350000
  59.2879408  62.6869408   8.8720000  59.6239408  64.1599408   8.9690000
  37.9229408  60.9289408   7.0610000  38.3859408  61.4039408   7.7510000
  37.6119408  61.6119408   6.4670000  56.0629408  66.2019408   2.8730000
  56.7759408  66.4759408   2.2960000  55.4759408  65.7009408   2.3070000
  55.4119408  80.8149408   1.5320000  55.4999408  80.9999408   0.5970000
  56.2239408  80.3649408   1.7650000  58.3659408  65.4669408  19.3010000
  58.8039408  65.9929408  18.6320000  58.0599408  64.6899408  18.8330000
  43.7059408  60.8079408  28.7940000  42.8089408  60.6749408  29.0990000
  44.2449408  60.6919408  29.5770000  50.9419408  64.3839408  17.7550000
  50.5819408  63.9059408  17.0080000  51.5239408  65.0359408  17.3640000
  49.5519408  73.4549408  29.3200000  49.6209408  72.9329408  30.1200000
  49.9389408  72.9039408  28.6400000  59.4049408  69.7769408   1.2160000
  59.7829408  69.6169408   0.3520000  58.8879408  68.9919408   1.4010000
  53.8139408  76.7889408  29.7140000  53.7769408  77.3819408  30.4640000
  54.6549408  76.9789408  29.2980000  32.6029408  76.3849408  27.6050000
  32.3689408  76.0419408  26.7430000  33.5349408  76.1849408  27.6980000
  51.4199408  73.2069408  24.2540000  51.6209408  72.3409408  24.6100000
  51.2789408  73.0559408  23.3200000  54.3839408  76.4509408  26.5200000
  54.4989408  77.3369408  26.1780000  54.0379408  76.5779408  27.4040000
  59.1759408  70.3779408  22.4850000  58.2839408  70.5879408  22.2080000
  59.0939408  70.1619408  23.4140000  57.5159408  71.6489408  18.8270000
  57.5849408  70.6959408  18.7670000  57.6049408  71.8379408  19.7610000
  58.1189408  73.0759408  23.9840000  58.7619408  72.6759408  24.5710000
  57.4529408  73.4369408  24.5690000  30.9759408  73.9229408  26.7960000
  31.2779408  74.0099408  27.7000000  31.7439408  73.6149408  26.3150000
  54.1129408  61.7349408  28.1150000  54.7809408  61.4299408  27.5010000
  54.4059408  62.6089408  28.3730000  51.7639408  73.3609408   2.3840000
  51.7739408  73.7069408   1.4920000  50.9559408  72.8499408   2.4340000
  30.6829408  64.4809408  26.5800000  30.8219408  64.3349408  25.6450000
  30.8769408  65.4089408  26.7100000  58.0309408  85.7699408   0.2010000
  57.6519408  86.3839408  -0.4290000  58.7909408  86.2309408   0.5560000
  32.9169408  70.2559408  22.9200000  32.3259408  70.8239408  22.4250000
  33.4999408  70.8599408  23.3800000  51.1939408  64.9999408  24.4080000
  50.3499408  65.2639408  24.7730000  51.2559408  64.0639408  24.5980000
  56.5439408  65.5789408  25.9390000  55.8209408  64.9659408  25.8060000
  57.3229408  65.0939408  25.6660000  58.7599408  88.1839408   3.0480000
  58.8759408  87.2849408   3.3560000  59.4779408  88.3219408   2.4310000
  32.6489408  67.0719408  23.3300000  32.9159408  67.8839408  22.8980000
  32.1039408  66.6239408  22.6820000  52.4329408  84.4709408   0.8190000
  51.6569408  84.3989408   1.3750000  52.5059408  83.6149408   0.3970000
  57.0089408  67.7539408  20.9100000  57.1639408  67.5669408  21.8360000
  56.1749408  67.3249408  20.7160000  33.2349408  78.6979408  24.7910000
  32.6099408  77.9739408  24.8150000  34.0829408  78.2909408  24.9680000
  35.1829408  75.2449408  28.7310000  35.2499408  74.6459408  27.9880000
  36.0909408  75.4169408  28.9820000  49.5569408  79.2589408   4.7920000
  49.8279408  78.5009408   4.2750000  49.5719408  79.9889408   4.1730000
  56.9399408  70.5709408   5.5480000  57.2969408  71.4359408   5.7460000
  57.5429408  70.2049408   4.9000000  52.1869408  67.3489408  23.2340000
  52.6329408  67.2299408  22.3960000  51.9849408  66.4599408  23.5270000
  53.0549408  86.8219408  15.9560000  52.1179408  86.8199408  16.1500000
  53.1779408  86.0819408  15.3610000  56.0829408  74.9759408  22.9120000
  56.8299408  74.5689408  22.4730000  56.1679408  74.7089408  23.8270000
  31.7139408  64.7479408   4.2270000  31.3929408  64.3309408   3.4270000
  31.0859408  64.4889408   4.9010000  56.7119408  88.8939408   1.2240000
  57.5319408  88.5429408   1.5710000  56.3319408  89.3829408   1.9540000
  54.2559408  83.5429408  18.3680000  54.2759408  82.7569408  18.9150000
  55.1489408  83.6239408  18.0320000  36.1619408  81.5309408  25.3790000
  36.6229408  82.3089408  25.0660000  36.8009408  80.8229408  25.2930000
  54.1759408  78.5089408   1.7660000  54.5339408  79.3739408   1.5650000
  54.8279408  78.1069408   2.3410000  55.2449408  75.1359408  19.2390000
  54.6809408  75.3399408  19.9860000  55.0279408  75.8009408  18.5860000
  57.8889408  62.9389408   0.7890000  57.1389408  62.3659408   0.9500000
  57.5709408  63.8159408   1.0000000  47.5889408  65.9449408  21.8650000
  47.9269408  65.0509408  21.9150000  48.2399408  66.4199408  21.3480000
  48.6329408  63.7929408  27.6990000  49.4459408  63.2949408  27.6140000
  48.5859408  64.0199408  28.6280000  59.2179408  71.7099408  26.2810000
  59.3859408  71.1539408  27.0420000  59.5759408  72.5639408  26.5240000
  50.0679408  66.6019408  20.6770000  50.4109408  65.7399408  20.4420000
  50.8469408  67.1369408  20.8290000  59.4139408  63.1659408  16.0720000
  59.2369408  62.3849408  16.5970000  58.9069408  63.8589408  16.4960000
  56.1419408  72.3979408  27.6270000  55.4329408  72.2329408  28.2480000
  56.9029408  72.5879408  28.1750000  47.8799408  67.6249408  24.1220000
  47.7579408  66.6759408  24.0920000  47.0159408  67.9709408  24.3480000
  51.5639408  75.6829408  25.4200000  52.2419408  75.5029408  26.0710000
  51.3869408  74.8329408  25.0160000  59.8499408  62.5939408  28.7080000
  59.3119408  62.9239408  29.4270000  59.7199408  63.2259408  28.0010000
  54.0009408  64.7069408   5.0710000  53.8849408  64.5229408   4.1390000
  54.2479408  63.8649408   5.4530000  58.6979408  64.9809408  23.9730000
  59.2289408  65.6649408  24.3820000  59.2709408  64.2149408  23.9480000
  32.5169408  63.7909408  28.9940000  32.3399408  64.7299408  29.0370000
  32.0049408  63.4829408  28.2460000  39.8899408  71.8059408  17.1790000
  40.2009408  71.2239408  17.8720000  40.1229408  71.3559408  16.3660000
  32.2539408  75.9619408  24.7120000  31.4929408  75.4689408  24.4070000
  33.0069408  75.4519408  24.4130000  50.1359408  76.2199408  28.9780000
  49.9219408  75.3049408  28.7990000  50.5769408  76.2019408  29.8280000
  50.0029408  69.2039408  23.4090000  50.8009408  68.6759408  23.4560000
  49.3039408  68.6049408  23.6730000  53.6059408  72.7209408  14.1930000
  53.3069408  72.6279408  13.2890000  53.8659408  73.6389408  14.2670000
  51.9269408  78.4589408  27.4240000  51.6859408  79.2179408  27.9550000
  51.2059408  77.8409408  27.5460000  53.0969408  67.0939408  20.7320000
  53.5719408  67.7899408  20.2780000  53.5829408  66.2959408  20.5220000
  30.1209408  67.1739408  25.0360000  31.0009408  67.3079408  24.6820000
  29.6779408  68.0119408  24.9010000  51.2829408  64.2129408  10.2370000
  52.1709408  64.4309408  10.5200000  50.9569408  65.0169408   9.8310000
  35.2779408  71.5559408   7.5480000  34.8449408  70.9229408   8.1220000
  35.5749408  72.2489408   8.1370000  36.0519408  66.0389408  12.9900000
  36.7619408  65.9259408  12.3580000  35.9799408  66.9859408  13.1040000
  55.8779408  74.2189408  25.3820000  55.9199408  73.5969408  26.1090000
  55.3539408  74.9449408  25.7190000  56.9689408  86.1229408  22.1750000
  57.8909408  86.2139408  22.4190000  56.8059408  86.8519408  21.5770000
  30.5089408  69.7659408  13.8980000  29.8269408  69.7809408  14.5700000
  30.2249408  69.0889408  13.2830000  52.0069408  73.9469408  16.1180000
  52.6479408  73.3789408  15.6900000  52.4899408  74.3509408  16.8390000
  51.3509408  83.5839408  27.1550000  52.0519408  84.1379408  26.8110000
  50.8199408  84.1729408  27.6900000  33.1369408  75.9089408  17.4420000
  33.2879408  76.7359408  17.8990000  32.3239408  76.0479408  16.9560000
  54.1139408  63.7159408  21.1230000  54.5879408  64.4759408  20.7840000
  54.5419408  63.5189408  21.9560000  29.8739408  69.2279408  27.4500000
  30.4399408  69.4969408  26.7260000  30.4529408  68.7489408  28.0430000
  43.7419408  66.4529408  15.6390000  44.2449408  66.8479408  14.9270000
  43.4279408  67.1979408  16.1520000  33.9139408  74.3159408  20.0960000
  33.3239408  75.0459408  20.2810000  33.8699408  74.2069408  19.1460000
  49.3529408  69.0949408  19.9650000  48.9699408  69.8979408  20.3180000
  49.1119408  68.4159408  20.5960000  47.2159408  62.2419408  14.2630000
  47.4569408  61.6839408  15.0030000  46.9959408  63.0849408  14.6600000
  35.4609408  74.3169408  26.1370000  34.8509408  73.6819408  25.7600000
  36.2679408  73.8219408  26.2740000  36.1759408  63.6459408  23.8610000
  37.0319408  63.4339408  24.2340000  35.6269408  63.8449408  24.6190000
  30.6509408  74.1239408  23.5250000  29.7119408  73.9479408  23.5810000
  30.9809408  73.4709408  22.9080000  32.0539408  72.5049408  21.6720000
  32.7779408  73.0489408  21.3630000  31.3189408  72.7389408  21.1060000
  57.4739408  68.2959408   7.3770000  57.0789408  69.0559408   6.9490000
  57.4529408  67.6089408   6.7110000  34.6389408  68.2059408   0.3610000
  34.5499408  69.1419408   0.5400000  35.5799408  68.0399408   0.4160000
  33.5789408  65.2939408  14.7230000  34.2869408  65.7469408  14.2640000
  32.8469408  65.9109408  14.7040000  44.3679408  68.5949408  20.4910000
  44.4269408  69.5469408  20.5680000  44.3979408  68.4279408  19.5490000
  32.4339408  89.4479408  21.3220000  31.7669408  88.7629408  21.3040000
  32.1439408  90.0829408  20.6670000  49.6399408  77.0629408  21.6660000
  50.2749408  77.2579408  22.3550000  49.4069408  77.9179408  21.3040000
  57.1349408  72.3819408  21.4320000  56.3539408  71.8949408  21.6950000
  57.7049408  72.3559408  22.2000000  31.7099408  64.5589408  17.3620000
  31.2679408  64.1129408  16.6390000  31.0809408  65.2169408  17.6580000
  33.7859408  63.1389408   5.5410000  34.7399408  63.2159408   5.5740000
  33.5029408  63.8839408   5.0110000  52.3099408  70.3559408  21.7640000
  51.7209408  71.1059408  21.6740000  51.7629408  69.6659408  22.1410000
  58.6129408  80.5529408  20.3810000  59.2029408  80.8629408  21.0670000
  58.5069408  81.3039408  19.7970000  48.5159408  85.7009408   0.7170000
  48.6129408  86.6029408   1.0230000  49.1969408  85.5999408   0.0510000
  54.3199408  75.3179408  13.4330000  53.7379408  76.0469408  13.2200000
  54.8819408  75.6559408  14.1310000  52.5469408  75.5769408   4.2880000
  51.8889408  76.0879408   3.8160000  52.4899408  74.7009408   3.9070000
  49.5539408  60.0589408  17.2370000  49.8519408  60.3489408  16.3750000
  48.6799408  60.4369408  17.3290000  54.5779408  86.1839408  19.7680000
  55.3119408  85.7339408  19.3490000  53.8019408  85.8429408  19.3220000
  51.9709408  89.7309408   4.2900000  51.4919408  90.5529408   4.3860000
  52.2929408  89.5359408   5.1700000  49.7779408  83.9979408  13.5600000
  50.2779408  84.1409408  12.7560000  50.3799408  83.5269408  14.1360000
  46.2369408  62.5929408   7.0360000  46.4979408  61.7169408   6.7530000
  47.0569408  63.0199408   7.2820000  47.8549408  63.6489408   8.8230000
  48.0219408  64.5789408   8.9790000  47.6949408  63.2839408   9.6930000
  50.3289408  84.1079408   2.8240000  49.6049408  84.5969408   2.4350000
  50.2499408  84.2699408   3.7640000  51.6989408  60.0119408  19.4060000
  52.3109408  59.7979408  18.7010000  50.9559408  60.4209408  18.9620000
  57.1489408  81.4149408   8.1260000  57.0169408  81.9989408   8.8730000
  56.3659408  80.8649408   8.1090000  51.1139408  62.1109408   4.7390000
  51.1109408  62.6599408   5.5240000  51.5609408  62.6399408   4.0780000
  52.0079408  70.1399408  16.2200000  51.9829408  70.3189408  15.2790000
  52.8879408  69.7949408  16.3750000  46.6089408  78.0909408  13.3550000
  46.7289408  77.5009408  12.6110000  47.4469408  78.5439408  13.4390000
  57.8639408  77.4319408   9.3610000  57.7469408  77.2979408  10.3010000
  58.3079408  78.2779408   9.2930000  31.0329408  85.6039408  13.9710000
  30.2089408  85.2399408  14.2930000  31.2309408  85.0919408  13.1870000
  31.9339408  89.6879408  18.6420000  32.2469408  88.7839408  18.6550000
  31.5109408  89.7829408  17.7880000  31.1559408  78.4609408  20.0400000
  30.2709408  78.7809408  19.8660000  31.0349408  77.5459408  20.2950000
  32.0799408  88.3339408   3.5080000  31.6479408  88.7749408   2.7770000
  32.4669408  89.0439408   4.0210000  47.4589408  79.6149408   6.9330000
  46.5709408  79.2699408   7.0270000  47.7209408  79.3639408   6.0470000
  56.6749408  77.5639408  13.5590000  56.2789408  77.7839408  14.4030000
  56.8119408  76.6169408  13.5990000  49.9319408  83.5469408   5.4520000
  49.4589408  82.7149408   5.4690000  50.8459408  83.3059408   5.6030000
  53.0439408  81.6259408  13.4910000  52.5689408  81.6099408  12.6600000
  53.9519408  81.4399408  13.2520000  51.5259408  87.0239408   3.9340000
  51.8329408  86.7029408   3.0860000  51.8009408  87.9409408   3.9570000
  52.5659408  83.1829408   6.2490000  52.5139408  82.3989408   6.7960000
  53.4839408  83.2299408   5.9820000  32.7359408  83.2419408  21.7040000
  32.8889408  83.6109408  20.8350000  32.5469408  83.9999408  22.2570000
  55.2289408  63.2469408  12.4100000  54.8559408  62.6399408  11.7710000
  56.0849408  63.4789408  12.0500000  33.0529408  86.7679408  15.5720000
  32.4119408  86.2939408  15.0430000  33.1159408  87.6289408  15.1590000
  54.1119408  81.8259408   3.7350000  54.7569408  82.4489408   4.0690000
  54.4369408  81.5849408   2.8680000  55.3229408  76.5199408   3.7300000
  55.4299408  75.8639408   3.0410000  54.4889408  76.2979408   4.1450000
  31.2079408  84.3789408  28.9760000  30.7519408  83.5889408  29.2650000
  32.1189408  84.1049408  28.8680000  55.6729408  80.8899408  23.2500000
  55.9379408  81.6929408  22.8020000  55.0279408  80.4909408  22.6670000
  58.0719408  75.0429408  14.1250000  58.3279408  74.1539408  13.8810000
  58.7059408  75.6059408  13.6790000  51.4969408  77.6769408   8.9910000
  50.6869408  77.9649408   9.4120000  51.2069408  77.1699408   8.2330000
  51.3089408  81.2979408  10.9070000  50.3719408  81.3809408  11.0840000
  51.3559408  80.9219408  10.0280000  52.7679408  79.3119408  17.3790000
  52.3009408  80.0629408  17.0110000  53.4259408  79.6989408  17.9570000
  49.7129408  81.5399408   7.5910000  49.1179408  80.8719408   7.2500000
  50.5109408  81.0599408   7.8100000  53.7039408  77.7479408  10.5130000
  54.1529408  76.9339408  10.2860000  52.9529408  77.7799408   9.9200000
  57.4709408  85.8359408   6.5070000  57.7579408  84.9329408   6.6370000
  57.3959408  85.9299408   5.5570000  57.1539408  85.2229408  18.8610000
  57.2309408  84.5909408  18.1470000  57.9429408  85.7599408  18.7930000
  58.9979408  75.2499408  17.3840000  58.6679408  75.0439408  18.2580000
  58.5579408  74.6249408  16.8080000  47.0249408  82.7099408  17.6690000
  46.8809408  82.0149408  17.0260000  46.7759408  83.5139408  17.2140000
  55.5159408  62.1409408   2.2740000  54.6969408  62.6339408   2.2290000
  55.2789408  61.3189408   2.7030000  57.8379408  76.4779408   4.9610000
  57.1649408  76.4449408   4.2810000  58.2269408  77.3489408   4.8720000
  48.1619408  71.4479408  18.1310000  48.1129408  71.6889408  19.0560000
  49.0279408  71.7449408  17.8520000  41.7949408  64.1809408  15.4660000
  41.0579408  64.3869408  16.0420000  42.4969408  64.7619408  15.7580000
  54.6279408  89.7129408   3.2650000  53.6809408  89.5999408   3.3410000
  54.9819408  89.3039408   4.0550000  54.1549408  88.4689408   8.6710000
  54.9869408  87.9959408   8.6860000  53.5239408  87.8559408   9.0480000
  57.6299408  88.3429408   7.5860000  57.5669408  87.3909408   7.5050000
  57.5549408  88.5079408   8.5260000  56.7179408  83.2369408  17.1170000
  57.0469408  83.5299408  16.2670000  56.4409408  82.3329408  16.9690000
  58.6429408  83.4169408   2.1320000  59.5469408  83.7219408   2.2000000
  58.2299408  84.0239408   1.5180000  48.1019408  89.3339408  13.8490000
  48.8249408  89.9569408  13.9170000  48.5209408  88.5029408  13.6270000
  30.8829408  75.8929408  20.9960000  31.0199408  75.6469408  21.9110000
  30.0429408  75.4959408  20.7640000  59.7119408  87.0349408  18.1520000
  59.5509408  87.4989408  17.3300000  59.2639408  87.5589408  18.8150000
  37.1339408  83.6299408  17.5170000  36.9599408  84.4419408  17.0430000
  37.4829408  83.0339408  16.8540000  34.8129408  80.6049408  20.3340000
  34.8989408  81.5329408  20.5520000  34.8869408  80.1529408  21.1740000
  55.3029408  86.0099408  11.7730000  55.0519408  85.5969408  10.9470000
  54.6769408  86.7259408  11.8830000  45.4609408  83.4619408   3.0360000
  45.9439408  83.2799408   2.2300000  45.3659408  82.6069408   3.4560000
  43.5109408  87.9189408  15.3630000  44.4469408  87.8499408  15.5500000
  43.2639408  87.0499408  15.0470000  55.1669408  85.1589408   1.8110000
  54.2559408  84.8679408   1.8270000  55.3879408  85.2049408   0.8810000
  51.1539408  87.1659408   6.5480000  51.4189408  86.9389408   5.6570000
  51.5359408  88.0299408   6.7000000  47.0539408  86.8609408  28.2050000
  46.3929408  87.1089408  28.8510000  46.5519408  86.4939408  27.4770000
  46.0469408  64.5639408  15.7710000  46.0809408  64.5099408  16.7260000
  45.4529408  65.2939408  15.5940000  32.8799408  87.4629408  12.2670000
  32.0239408  87.0379408  12.2150000  33.2679408  87.3299408  11.4030000
  58.6919408  79.2009408   3.8620000  59.5599408  78.8229408   3.7170000
  58.1619408  78.8679408   3.1380000  57.3199408  78.8899408   1.5420000
  57.8129408  79.1749408   0.7720000  57.3469408  77.9339408   1.5040000
  30.1709408  85.8719408   3.6420000  30.6029408  85.3299408   2.9810000
  30.8439408  86.4929408   3.9200000  51.9069408  80.2649408   8.2860000
  51.7919408  79.3209408   8.3890000  52.4119408  80.3589408   7.4790000
  50.8209408  85.7819408  11.5460000  50.6039408  85.9449408  10.6280000
  50.7959408  86.6459408  11.9560000  57.3569408  61.1799408   6.2670000
  57.6309408  61.6629408   5.4870000  58.0139408  60.4909408   6.3660000
  48.4929408  80.8929408  11.3400000  48.2899408  80.2629408  10.6490000
  47.8709408  81.6069408  11.2050000  57.5929408  88.9229408  10.4380000
  57.4519408  89.3709408  11.2720000  58.5019408  88.6269408  10.4740000
  39.8979408  88.3239408  17.5680000  40.5479408  87.6229408  17.5210000
  39.0609408  87.8869408  17.4100000  30.6229408  85.0849408  19.8260000
  31.5509408  84.8679408  19.9130000  30.5909408  85.7159408  19.1080000
  42.2699408  76.4249408  28.7760000  42.9509408  77.0969408  28.8060000
  42.4539408  75.9319408  27.9760000  59.5049408  69.6089408   3.9390000
  59.2369408  69.4409408   3.0360000  60.3389408  69.1489408   4.0320000
  54.9399408  88.5519408  12.8940000  55.6679408  88.0659408  13.2810000
  55.3499408  89.3119408  12.4820000  56.2609408  80.5759408  16.5330000
  55.9599408  79.7359408  16.1870000  57.1519408  80.4039408  16.8380000
  30.9209408  89.9589408   9.9480000  31.4189408  89.3979408   9.3520000
  30.0779408  90.0829408   9.5120000  30.1289408  60.2789408   6.1440000
  30.1339408  60.2069408   5.1890000  30.6739408  59.5509408   6.4420000
  50.1059408  86.3139408   8.9570000  50.3829408  86.3689408   8.0430000
  49.8789408  87.2129408   9.1940000  53.6379408  89.1839408  27.3740000
  53.8629408  88.6559408  28.1400000  53.7149408  90.0889408  27.6760000
  47.8029408  61.4979408   2.0150000  47.8179408  61.3079408   2.9530000
  47.9959408  60.6579408   1.5970000  51.2849408  81.4409408   3.2030000
  52.1909408  81.6019408   3.4660000  50.9289408  82.3109408   3.0260000
  54.8339408  78.1349408  15.5300000  55.1179408  77.2749408  15.8380000
  54.2629408  78.4619408  16.2250000  55.9399408  83.0769408  10.1740000
  55.0409408  82.8989408  10.4490000  55.8779408  83.8789408   9.6550000
  37.8459408  64.6539408  28.8310000  38.2209408  64.7389408  29.7070000
  37.3629408  63.8279408  28.8550000  30.5509408  83.0329408   8.3860000
  30.1859408  83.4379408   7.6000000  29.8569408  83.1109408   9.0410000
  51.0919408  62.8469408  27.7180000  51.6289408  62.2659408  28.2570000
  51.7059408  63.5029408  27.3870000  49.0939408  85.2559408  17.6310000
  48.8449408  85.5209408  18.5160000  48.5189408  84.5169408  17.4310000
  54.6889408  86.4959408  23.9890000  55.4609408  86.4079408  23.4300000
  54.0209408  85.9579408  23.5630000  49.7889408  87.3129408  23.2930000
  50.5389408  87.1429408  22.7230000  49.6029408  88.2449408  23.1720000
  56.0789408  88.6559408   5.3270000  56.5179408  88.9459408   6.1270000
  56.5309408  87.8469408   5.0860000  51.9989408  87.5469408   1.0180000
  52.9239408  87.6119408   0.7810000  51.7279408  86.6889408   0.6910000
  47.6129408  80.7449408   3.2240000  47.4149408  79.8939408   2.8320000
  47.7729408  81.3209408   2.4770000  58.7029408  83.2359408  20.3090000
  59.5569408  83.6369408  20.1500000  58.0819408  83.8059408  19.8540000
  49.1839408  82.3919408  19.3730000  48.8759408  82.0519408  20.2130000
  48.3959408  82.4469408  18.8330000  52.4529408  82.8319408  24.3870000
  53.2899408  83.2969408  24.4070000  51.9209408  83.3219408  23.7600000
  59.3329408  80.1069408   9.6110000  60.1389408  80.5079408   9.2850000
  58.7129408  80.1949408   8.8870000  59.7389408  61.2499408  22.7270000
  59.9719408  60.5979408  22.0660000  58.7969408  61.1349408  22.8560000
  44.6139408  84.3099408  28.8680000  43.7559408  84.7329408  28.8890000
  45.0889408  84.7639408  28.1720000  31.4839408  80.5129408  26.1210000
  31.9909408  79.8839408  25.6070000  30.8779408  80.9039408  25.4910000
  57.4289408  84.6289408  24.5640000  56.6139408  84.5409408  24.0710000
  57.3679408  83.9629408  25.2490000  56.4519408  78.2429408  23.9800000
  56.5979408  79.0739408  23.5290000  55.5169408  78.0689408  23.8690000
  56.6279408  65.1689408  30.1560000  55.8039408  64.7719408  29.8740000
  56.6229408  66.0389408  29.7570000  32.8429408  85.7119408  23.1490000
  33.7689408  85.4969408  23.0340000  32.8479408  86.5679408  23.5780000
  53.8769408  81.7659408  27.1800000  54.5629408  82.2469408  26.7180000
  53.0929408  82.3049408  27.0720000  58.0669408  75.0089408  20.1910000
  58.0739408  75.9439408  19.9830000  57.1889408  74.8459408  20.5340000
  56.0639408  77.5379408  28.8710000  56.7539408  76.9079408  28.6660000
  56.4249408  78.3839408  28.6060000  57.8099408  77.9179408  26.6380000
  57.3599408  78.3039408  25.8870000  57.8709408  76.9859408  26.4280000
  50.8229408  80.4389408  24.5460000  51.4419408  81.1659408  24.6110000
  50.8099408  80.2179408  23.6140000  56.1169408  60.6769408  26.5390000
  55.8869408  60.0879408  25.8210000  56.9099408  60.2969408  26.9170000
  54.0979408  72.2559408  29.3850000  53.7049408  73.1289408  29.3770000
  53.3609408  71.6629408  29.5350000  33.7959408  62.6399408   1.5360000
  33.1589408  63.0979408   0.9870000  33.2689408  62.0539408   2.0780000
  56.4579408  82.1029408  25.8250000  57.2999408  81.6859408  26.0080000
  56.1359408  81.6579408  25.0400000  54.2699408  89.2149408  24.6630000
  54.2869408  88.9489408  25.5820000  54.4699408  88.4149408  24.1780000
  49.3969408  82.8279408  25.2380000  49.5079408  82.1059408  24.6190000
  50.1119408  82.7199408  25.8640000  50.7379408  63.9019408  20.2470000
  50.8629408  63.9519408  19.3000000  51.6089408  64.0529408  20.6130000
  46.8359408  61.2099408  27.0900000  47.4759408  60.5949408  27.4500000
  47.1229408  62.0669408  27.4050000  56.1579408  86.4039408   3.9090000
  55.6669408  87.2129408   4.0520000  55.8099408  86.0549408   3.0890000
  47.0399408  88.4119408  24.8180000  47.5809408  88.5059408  25.6020000
  47.1749408  87.5059408  24.5410000  53.6199408  84.9529408  22.0760000
  52.8519408  84.5989408  21.6270000  54.1499408  85.3379408  21.3780000
  51.2529408  83.5169408  20.7880000  50.5179408  83.0819408  20.3570000
  50.8559408  83.9929408  21.5170000  33.1729408  89.6979408  23.8650000
  32.8949408  89.4999408  22.9710000  33.6089408  90.5479408  23.7990000
  54.4219408  69.4159408  20.1160000  55.2529408  69.6309408  20.5400000
  53.7539408  69.7569408  20.7110000  32.7039408  81.1609408   0.5350000
  31.8629408  81.6189408   0.5440000  32.8899408  81.0209408  -0.3940000
  48.5739408  86.5729408  19.9790000  49.3969408  87.0059408  20.2050000
  47.9349408  86.9379408  20.5900000  53.9579408  61.6669408  23.3620000
  53.0839408  61.9459408  23.6370000  54.0009408  60.7409408  23.6010000
  58.8059408  76.1259408  29.0390000  59.4149408  76.8549408  28.9240000
  59.3669408  75.3549408  29.1220000  53.5929408  80.4459408   6.1030000
  54.4549408  80.0469408   6.2220000  53.6239408  80.8299408   5.2270000
  51.0189408  81.9559408  17.3460000  50.6409408  82.0609408  18.2200000
  51.4569408  82.7889408  17.1720000  59.3579408  66.4659408  21.7420000
  58.9689408  66.1709408  20.9190000  59.0259408  65.8529408  22.3980000
  35.0389408  80.2599408  23.3180000  35.4329408  80.8059408  23.9980000
  34.2329408  79.9279408  23.7140000  52.3159408  60.6029408   0.0200000
  52.8489408  60.3259408   0.7650000  52.9519408  60.8169408  -0.6630000
  32.0639408  62.4419408  19.6400000  32.0359408  63.1009408  18.9460000
  31.3919408  61.8059408  19.3950000  46.0279408  89.2599408  18.5900000
  45.0909408  89.1729408  18.4130000  46.1359408  88.9249408  19.4800000
  50.3859408  84.2079408  23.2040000  50.0829408  85.1069408  23.3300000
  49.8389408  83.6859408  23.7910000  30.8689408  66.2169408   0.9050000
  31.1979408  66.6709408   0.1290000  31.6129408  66.1979408   1.5060000
  34.5629408  85.8619408  25.9740000  33.6279408  86.0279408  26.0910000
  34.7009408  84.9909408  26.3480000  40.0009408  86.2329408  21.9690000
  40.8279408  85.7619408  22.0740000  40.2609408  87.1449408  21.8330000
  43.1139408  89.2469408  18.1040000  43.4209408  88.6579408  17.4150000
  42.3449408  89.6749408  17.7280000  34.1209408  73.6749408  43.7610000
  34.0209408  74.4239408  44.3480000  34.6659408  73.0579408  44.2490000
  49.4019408  77.0039408  33.4620000  49.3069408  76.1259408  33.8320000
  48.6369408  77.1089408  32.8970000  51.2879408  65.2629408  59.9310000
  50.5409408  64.9539408  60.4440000  50.9199408  65.9259408  59.3470000
  36.9639408  87.2739408  34.1330000  36.2589408  86.7169408  34.4630000
  36.9889408  88.0129408  34.7410000  51.1249408  61.1489408  51.7350000
  50.9649408  60.2999408  51.3230000  51.6349408  61.6379408  51.0890000
  36.7109408  78.7099408  51.4700000  36.3839408  79.3649408  52.0880000
  37.6529408  78.8729408  51.4250000  41.8849408  71.9679408  42.0810000
  41.2899408  71.2449408  42.2800000  42.7569408  71.5759408  42.1090000
  35.8789408  66.9689408  38.7010000  35.4139408  66.1719408  38.4480000
  35.9029408  67.4959408  37.9020000  30.6359408  74.0729408  38.5360000
  29.8129408  74.3929408  38.1640000  30.9089408  73.3719408  37.9450000
  39.0639408  68.6819408  47.8260000  38.4579408  68.2489408  48.4280000
  39.3939408  67.9759408  47.2700000  41.2259408  71.3479408  35.7040000
  40.6419408  71.7979408  36.3140000  41.6789408  70.6969408  36.2400000
  35.6149408  73.6859408  38.9500000  35.7649408  73.7169408  39.8950000
  34.7539408  74.0859408  38.8300000  32.5329408  67.1629408  58.8470000
  33.2739408  67.5749408  59.2930000  32.8629408  66.9599408  57.9720000
  42.9309408  85.5519408  44.1980000  43.8639408  85.3599408  44.1090000
  42.5239408  85.1209408  43.4470000  40.6849408  75.9839408  36.6650000
  41.1339408  76.8249408  36.7490000  39.8769408  76.0929408  37.1670000
  32.3889408  80.7699408  33.8460000  33.1819408  81.3059408  33.8470000
  32.6729408  79.9199408  34.1820000  39.6549408  84.0029408  60.1860000
  39.0479408  84.5939408  59.7410000  40.5229408  84.3469408  59.9750000
  43.5299408  74.6779408  30.5350000  42.9009408  73.9769408  30.7060000
  43.0779408  75.2629408  29.9270000  34.4319408  88.7859408  56.2340000
  34.8979408  88.1089408  55.7430000  33.7839408  89.1269408  55.6170000
  41.7599408  83.1179408  38.5430000  41.6899408  83.8819408  37.9720000
  42.0759408  82.4179408  37.9710000  31.5889408  67.8679408  35.1380000
  31.9129408  67.0799408  34.7030000  32.3749408  68.2939408  35.4810000
  34.3779408  61.6949408  46.6380000  33.4469408  61.8319408  46.4640000
  34.7679408  61.5709408  45.7730000  46.9779408  74.3809408  58.3850000
  47.8199408  73.9829408  58.6060000  47.1409408  74.8459408  57.5640000
  41.0189408  62.1809408  48.1460000  40.7569408  63.1019408  48.1390000
  41.6919408  62.1279408  48.8240000  45.1549408  60.6799408  38.8720000
  44.7649408  61.4279408  38.4200000  45.0899408  59.9599408  38.2450000
  45.4189408  74.0349408  43.0950000  44.8099408  73.9809408  43.8320000
  44.8679408  74.2559408  42.3440000  36.8749408  86.9259408  39.7580000
  37.0919408  87.8089408  40.0560000  37.0169408  86.9499408  38.8120000
  42.2769408  69.0759408  56.9600000  41.8759408  69.8269408  56.5240000
  42.9859408  69.4519408  57.4820000  38.3539408  66.3839408  33.5020000
  39.0179408  66.9059408  33.0520000  37.9879408  66.9769408  34.1590000
  37.7939408  73.7699408  37.0920000  37.1589408  73.5089408  37.7590000
  38.3649408  73.0079408  36.9930000  39.0859408  62.8069408  42.3010000
  39.2659408  63.2629408  41.4790000  39.7729408  63.1059408  42.8980000
  37.6489408  77.3009408  42.5020000  37.1329408  77.8939408  43.0490000
  37.6139408  76.4609408  42.9600000  52.4549408  63.6049408  32.6640000
  51.6819408  63.5749408  32.1000000  52.7979408  64.4919408  32.5530000
  37.2079408  68.2029408  59.8520000  37.3599408  68.7419408  60.6280000
  38.0649408  68.1409408  59.4310000  40.4099408  85.8839408  56.7950000
  40.4019408  86.2829408  55.9250000  39.6159408  86.2129408  57.2170000
  34.6869408  63.6109408  42.3470000  33.8339408  63.9499408  42.0730000
  35.2309408  64.3909408  42.4540000  43.1469408  72.3189408  57.0580000
  43.5739408  72.0469408  56.2450000  43.8619408  72.4039408  57.6880000
  41.3659408  80.8169408  42.9800000  41.3449408  81.5859408  42.4090000
  42.2869408  80.5579408  42.9990000  45.5709408  64.5019408  53.2080000
  46.1229408  65.1429408  52.7600000  45.2669408  63.9189408  52.5130000
  44.5329408  79.5259408  37.8070000  44.0209408  78.9609408  38.3850000
  43.9069408  80.1799408  37.4950000  34.9169408  74.0799408  36.0540000
  35.2429408  73.2809408  36.4690000  34.3959408  74.5079408  36.7330000
  41.9419408  64.9309408  48.4310000  42.8109408  65.3169408  48.3240000
  41.7659408  64.9919408  49.3700000  32.9999408  83.7209408  34.9930000
  32.5599408  83.1309408  35.6050000  33.7909408  83.2499408  34.7310000
  39.3909408  65.9979408  43.5600000  38.4679408  65.8209408  43.7410000
  39.5449408  65.6099408  42.6990000  36.4589408  79.0469408  44.2110000
  35.7969408  78.9559408  44.8960000  37.0899408  79.6709408  44.5690000
  42.7269408  64.7419408  43.0350000  43.5559408  64.2759408  42.9230000
  42.3699408  64.4009408  43.8560000  40.9189408  75.5149408  41.9010000
  40.0709408  75.1079408  41.7250000  40.7289408  76.4519408  41.9560000
  41.2779408  68.6519408  39.3500000  41.3409408  67.9429408  39.9910000
  40.6729408  69.2789408  39.7440000  37.3769408  88.8119408  31.6800000
  36.6809408  88.2869408  31.2850000  37.2869408  88.6599408  32.6210000
  45.6899408  78.6069408  34.5490000  45.8669408  78.6029408  33.6090000
  46.2479408  77.9129408  34.9010000  36.0069408  60.8799408  34.4630000
  36.8559408  60.4709408  34.2940000  36.1609408  61.8149408  34.3310000
  39.4119408  68.7209408  36.5640000  39.9009408  68.4549408  37.3430000
  40.0189408  69.2819408  36.0810000  40.9679408  78.3959408  45.9660000
  41.6029408  77.8829408  45.4660000  40.1389408  77.9329408  45.8490000
  39.0729408  70.0809408  39.9790000  39.3089408  70.3209408  40.8750000
  38.1399408  69.8699408  40.0250000  38.6629408  83.0849408  35.7270000
  39.1639408  82.7029408  36.4480000  39.3049408  83.2099408  35.0280000
  42.1909408  63.0269408  36.6490000  42.5829408  63.5069408  37.3790000
  42.8259408  62.3399408  36.4440000  32.7639408  70.3209408  45.9390000
  32.1979408  70.7929408  45.3280000  32.1579408  69.8679408  46.5260000
  33.7929408  65.9289408  48.5460000  34.5359408  65.3939408  48.2680000
  33.0419408  65.5539408  48.0850000  37.2649408  65.4869408  40.7700000
  36.6499408  66.0649408  40.3180000  37.6409408  64.9459408  40.0760000
  34.4899408  64.3149408  38.6110000  33.8189408  63.6769408  38.8510000
  34.7519408  64.0669408  37.7250000  42.6159408  62.7419408  32.6460000
  42.2479408  63.1119408  31.8440000  43.2749408  63.3789408  32.9240000
  33.9959408  70.0319408  49.2360000  34.7059408  69.4889408  48.8920000
  34.1359408  70.8909408  48.8370000  43.6049408  69.6929408  33.1680000
  44.0819408  68.9459408  33.5280000  44.2209408  70.4239408  33.2310000
  40.6809408  71.2849408  30.4750000  40.9629408  71.9649408  29.8630000
  40.5939408  71.7389408  31.3140000  36.1979408  88.7859408  37.3920000
  35.6229408  89.3219408  37.9370000  36.9389408  89.3569408  37.1890000
  45.6389408  66.6119408  38.9870000  45.6199408  66.6119408  39.9440000
  46.5409408  66.8459408  38.7660000  37.3569408  74.9479408  44.1060000
  36.7409408  74.6609408  44.7800000  37.7119408  74.1349408  43.7450000
  31.5759408  61.8369408  42.3790000  31.6699408  61.3979408  41.5340000
  31.7809408  62.7539408  42.1980000  39.7979408  73.5629408  50.7020000
  39.9119408  72.6129408  50.6900000  40.2249408  73.8659408  49.9000000
  35.8779408  71.1339408  58.3530000  36.6849408  71.2089408  58.8610000
  35.1959408  70.9759408  59.0060000  42.6309408  73.1459408  44.3340000
  42.2629408  73.3379408  43.4710000  42.9819408  72.2589408  44.2530000
  40.1429408  68.5439408  32.9460000  40.7999408  68.6049408  32.2530000
  40.5939408  68.8529408  33.7320000  34.7069408  75.4199408  53.1280000
  34.5639408  75.8999408  52.3120000  34.9709408  76.0909408  53.7570000
  32.9149408  76.4549408  44.3630000  33.5279408  77.1049408  44.7050000
  32.2449408  76.3749408  45.0420000  39.9729408  61.6209408  39.1660000
  40.8859408  61.7839408  38.9290000  40.0159408  61.2549408  40.0490000
  42.5159408  69.3919408  37.0440000  42.9239408  68.9559408  36.2950000
  42.6179408  68.7729408  37.7670000  48.2509408  70.8129408  57.5970000
  47.9399408  70.8729408  56.6940000  49.1989408  70.9269408  57.5330000
  35.0659408  72.1979408  48.1450000  35.8319408  71.7159408  47.8330000
  34.6889408  72.5859408  47.3550000  34.4699408  66.9909408  51.0950000
  34.3759408  66.7169408  50.1820000  34.4599408  67.9469408  51.0610000
  34.3569408  84.6489408  43.1330000  35.1819408  85.0809408  42.9100000
  33.8739408  85.2999408  43.6410000  36.0859408  74.8579408  41.4430000
  35.4669408  75.3769408  40.9300000  35.9959408  75.1919408  42.3360000
  43.4409408  76.1729408  38.5040000  43.3789408  75.9409408  37.5780000
  42.7799408  76.8539408  38.6260000  38.5019408  64.1379408  38.6120000
  38.8629408  64.4539408  37.7840000  38.9809408  63.3279408  38.7890000
  39.2219408  89.9579408  49.5540000  39.1209408  89.3189408  48.8490000
  39.7729408  90.6449408  49.1780000  35.8979408  86.1729408  45.7840000
  34.9769408  86.4009408  45.6590000  36.2559408  86.1269408  44.8980000
  34.1719408  68.0399408  36.5580000  33.5999408  68.3309408  37.2680000
  34.3229408  68.8259408  36.0330000  33.5469408  89.1949408  44.3880000
  33.4529408  88.7309408  43.5560000  34.0779408  89.9629408  44.1760000
  37.6459408  75.5889408  30.5610000  38.1379408  74.9059408  31.0160000
  38.1499408  76.3889408  30.7110000  39.7719408  62.8839408  35.6410000
  40.6209408  62.7349408  36.0590000  39.7999408  62.3549408  34.8440000
  39.0259408  76.3989408  45.6100000  38.7289408  76.0099408  46.4320000
  38.4029408  76.0809408  44.9560000  42.9919408  66.0789408  50.9050000
  43.2669408  66.9929408  50.8340000  43.4549408  65.7489408  51.6750000
  43.9919408  70.0189408  59.0960000  44.7189408  69.4589408  59.3680000
  44.3539408  70.5539408  58.3890000  45.0069408  67.1169408  58.0480000
  45.2319408  67.0419408  58.9750000  44.1499408  66.6969408  57.9740000
  35.7419408  71.5499408  42.2860000  35.5099408  71.7689408  43.1890000
  36.5849408  71.9799408  42.1450000  31.1999408  77.8119408  59.4490000
  31.9049408  78.0979408  60.0290000  31.6469408  77.3699408  58.7280000
  32.4759408  73.4329408  41.5170000  32.9669408  73.3179408  42.3310000
  32.3929408  74.3819408  41.4200000  34.0809408  70.9719408  40.1910000
  33.3579408  71.5829408  40.3280000  34.6869408  71.1519408  40.9110000
  32.4699408  62.2689408  39.4860000  31.9209408  63.0069408  39.2190000
  31.8819408  61.5139408  39.4670000  33.0199408  76.0899408  41.5960000
  32.9749408  76.1599408  42.5500000  33.1089408  76.9939408  41.2930000
  42.5739408  74.1909408  46.7410000  42.6879408  73.7449408  45.9010000
  43.3929408  74.6689408  46.8720000  45.7109408  72.0629408  58.0250000
  46.5479408  71.6029408  58.0980000  45.9129408  72.9669408  58.2670000
  39.4949408  75.9309408  33.8740000  39.7659408  75.7989408  34.7830000
  39.9059408  76.7569408  33.6190000  38.0449408  78.2839408  47.2700000
  37.8129408  77.5769408  47.8720000  38.2419408  77.8409408  46.4450000
  38.0199408  61.0509408  44.0630000  38.1869408  61.8039408  43.4960000
  38.5849408  61.1939408  44.8240000  42.3299408  83.4389408  34.0320000
  41.5709408  82.9229408  33.7610000  43.0749408  83.0059408  33.6160000
  33.8559408  88.2669408  36.1100000  33.5329408  89.1219408  35.8250000
  34.7399408  88.4389408  36.4320000  32.1229408  82.1309408  47.8600000
  32.8419408  81.8089408  47.3180000  32.3069408  83.0629408  47.9750000
  48.9909408  68.3469408  35.9690000  49.9089408  68.3779408  36.2400000
  48.8449408  67.4349408  35.7200000  35.8029408  76.0779408  34.3120000
  36.5949408  75.6419408  33.9980000  35.6179408  75.6609408  35.1540000
  45.6349408  71.6509408  33.7230000  46.4549408  71.1739408  33.8460000
  45.4639408  72.0589408  34.5730000  43.6209408  75.0579408  41.2560000
  42.8359408  75.3699408  41.7060000  43.5009408  75.3309408  40.3470000
  36.7349408  70.4089408  46.9120000  37.6709408  70.2119408  46.8740000
  36.3309408  69.5979408  47.2210000  39.1019408  79.7299408  52.1000000
  39.8669408  79.3959408  51.6300000  39.3469408  80.6199408  52.3550000
  38.8879408  80.4159408  31.5990000  38.2829408  79.7779408  31.9770000
  38.7719408  81.2019408  32.1330000  43.4439408  60.5639408  35.1250000
  44.2609408  60.5429408  35.6220000  43.7179408  60.5099408  34.2090000
  38.1309408  77.3219408  39.6840000  38.1119408  78.2399408  39.4110000
  37.9969408  77.3509408  40.6310000  41.8609408  68.8709408  30.8180000
  41.4729408  69.7019408  30.5460000  42.8049408  69.0259408  30.7920000
  38.7819408  74.8269408  40.5120000  37.8989408  74.6719408  40.8490000
  38.7299408  75.6859408  40.0920000  44.7319408  65.0299408  36.7360000
  45.2879408  64.2539408  36.6670000  45.2679408  65.6689408  37.2060000
  44.7409408  78.3739408  58.8420000  45.0239408  79.2489408  58.5730000
  45.2609408  78.1829408  59.6220000  37.7279408  73.2519408  56.7680000
  37.4999408  72.7349408  57.5410000  38.4259408  73.8349408  57.0650000
  48.8059408  78.6449408  59.5420000  49.1739408  77.7629408  59.4910000
  49.4979408  79.2139408  59.2050000  43.6759408  72.0399408  38.3110000
  42.9579408  72.4469408  38.7970000  43.3909408  71.1369408  38.1740000
  34.4319408  59.9699408  39.1520000  34.9539408  60.3289408  39.8690000
  33.7079408  60.5879408  39.0490000  33.1979408  75.2869408  37.9950000
  32.5999408  75.4139408  37.2590000  32.7259408  74.7069408  38.5910000
  43.4919408  70.2479408  45.4210000  44.1179408  70.9619408  45.5410000
  44.0109408  69.5349408  45.0460000  36.3509408  72.5299408  50.8020000
  35.7639408  72.6359408  50.0530000  36.8079408  73.3679408  50.8690000
  32.1939408  62.4329408  45.0200000  31.9859408  62.0149408  44.1840000
  32.7589408  63.1699408  44.7850000  50.3539408  61.1919408  44.3940000
  51.2449408  61.0649408  44.0680000  50.3279408  62.1089408  44.6690000
  42.9529408  78.1909408  34.7110000  42.8259408  78.4779408  35.6150000
  43.8859408  78.3269408  34.5450000  41.2079408  73.2309408  39.6310000
  41.4929408  73.1859408  40.5430000  40.4689408  73.8389408  39.6400000
  35.2889408  76.5969408  31.2440000  36.1979408  76.4009408  31.4730000
  35.0949408  76.0109408  30.5130000  35.9609408  61.2959408  40.8390000
  36.7089408  61.8909408  40.8830000  35.2019408  61.8499408  41.0230000
  47.9639408  64.7779408  30.3340000  47.0519408  65.0459408  30.4500000
  48.1979408  64.3589408  31.1630000  36.0819408  71.7559408  33.1260000
  35.2619408  72.2489408  33.0890000  36.7199408  72.3779408  33.4750000
  41.8799408  71.9409408  33.1400000  41.5959408  71.9629408  34.0530000
  42.2839408  71.0799408  33.0340000  40.6029408  78.1769408  42.3180000
  39.6709408  78.0139408  42.4610000  40.6839408  79.1309408  42.3230000
  36.3819408  63.8779408  36.2780000  36.8239408  64.1609408  37.0780000
  36.7769408  64.4079408  35.5850000  47.8219408  70.6709408  54.7140000
  47.0509408  70.2079408  54.3860000  48.5589408  70.2549408  54.2680000
  50.9929408  76.8169408  31.4860000  51.3499408  77.6909408  31.3270000
  50.4049408  76.9299408  32.2320000  36.4319408  69.2409408  39.6680000
  35.6539408  69.7959408  39.6110000  36.1929408  68.4429408  39.1960000
  47.9739408  70.1959408  34.3400000  48.5639408  70.9399408  34.4650000
  48.2259408  69.5729408  35.0210000  35.8949408  79.3489408  40.4970000
  35.2319408  79.5939408  41.1420000  35.4229408  78.8129408  39.8600000
  40.5329408  64.8369408  41.0850000  40.4469408  65.5079408  40.4070000
  41.3799408  65.0149408  41.4930000  38.3729408  83.4639408  43.1860000
  39.1639408  83.9339408  42.9220000  37.6539408  83.9979408  42.8490000
  38.0019408  73.8009408  34.2870000  38.6839408  74.4149408  34.0160000
  37.9259408  73.9279408  35.2330000  38.5919408  80.0079408  41.6570000
  37.6919408  79.6829408  41.6220000  38.5009408  80.9549408  41.7650000
  38.5059408  89.5499408  34.7200000  39.2599408  89.8159408  34.1930000
  38.6619408  89.9459408  35.5770000  34.0379408  87.2559408  39.9530000
  34.9729408  87.0479408  39.9550000  33.9999408  88.1869408  39.7350000
  47.8569408  65.7969408  36.3200000  48.7739408  65.6119408  36.1180000
  47.3679408  65.4069408  35.5960000  39.6499408  71.8419408  37.8760000
  40.4039408  72.2779408  38.2730000  39.2779408  71.3139408  38.5820000
  46.4069408  63.6289408  49.0480000  47.1099408  64.2789408  49.0450000
  46.1969408  63.5069408  49.9740000  41.6449408  68.1269408  53.6070000
  41.9199408  67.4939408  54.2710000  41.9309408  68.9729408  53.9510000
  37.8239408  69.7049408  31.9020000  38.6989408  69.3949408  32.1340000
  37.3699408  69.7939408  32.7400000  37.4669408  69.5539408  56.4890000
  37.0789408  70.1509408  57.1290000  37.8689408  70.1279408  55.8380000
  35.3919408  69.8369408  51.5440000  34.4879408  70.0839408  51.7380000
  35.8819408  70.6569408  51.5990000  35.3759408  65.8509408  34.5400000
  35.9379408  66.5929408  34.3170000  35.1269408  66.0039408  35.4520000
  46.1989408  72.7839408  54.3270000  46.9519408  72.3809408  54.7590000
  45.5079408  72.1229408  54.3830000  37.8799408  86.0279408  53.7110000
  38.5289408  86.2299408  53.0370000  37.0729408  85.8609408  53.2240000
  47.0589408  64.2909408  33.6940000  47.3229408  63.4279408  34.0130000
  46.3329408  64.1129408  33.0950000  39.2999408  64.7489408  46.6790000
  38.4779408  64.7659408  46.1890000  39.0309408  64.7099408  47.5970000
  40.2849408  69.8869408  42.5980000  40.8409408  69.1149408  42.4900000
  40.1829408  69.9779408  43.5460000  41.5199408  70.6549408  54.6330000
  41.7749408  71.4879408  54.2350000  40.7539408  70.3749408  54.1320000
  42.8319408  66.0959408  55.8560000  42.2219408  66.7999408  56.0740000
  42.2899408  65.4319408  55.4300000  52.0739408  69.3869408  59.4840000
  52.9599408  69.0269408  59.4310000  51.4999408  68.6319408  59.3590000
  33.0429408  72.8729408  55.6090000  33.5349408  72.7249408  54.8020000
  32.7319408  72.0039408  55.8640000  35.6739408  83.6199408  30.0820000
  36.0949408  83.8689408  30.9050000  36.3839408  83.2649408  29.5480000
  33.0279408  78.2679408  31.4330000  33.1569408  79.2159408  31.4620000
  33.8729408  77.9189408  31.1520000  35.6639408  68.1749408  48.2520000
  36.2629408  67.8789408  48.9380000  35.1889408  67.3859408  47.9920000
  35.9109408  66.2639408  53.1760000  35.8639408  65.3079408  53.1610000
  35.2579408  66.5469408  52.5370000  33.5549408  72.7819408  33.2750000
  32.7219408  72.4139408  33.5720000  33.4619408  73.7249408  33.4110000
  42.0799408  62.2879408  55.6550000  41.8949408  62.3419408  56.5920000
  41.6749408  63.0719408  55.2840000  33.4729408  69.6029408  57.1470000
  33.7089408  68.7169408  56.8730000  34.0979408  69.8149408  57.8400000
  39.1499408  89.6889408  52.5040000  39.9349408  90.2339408  52.5540000
  39.1679408  89.3219408  51.6200000  40.2899408  76.9219408  56.2360000
  40.6129408  76.3839408  55.5120000  40.5349408  77.8159408  55.9980000
  35.6959408  66.5609408  57.9650000  36.2729408  66.7839408  57.2350000
  36.2299408  66.7069408  58.7460000  39.0229408  70.0999408  53.4030000
  38.3649408  70.6929408  53.7660000  38.5369408  69.3039408  53.1870000
  32.6359408  69.1879408  42.6550000  32.1249408  69.8089408  43.1730000
  31.9839408  68.6069408  42.2650000  40.1199408  61.7629408  33.4120000
  39.5699408  61.8339408  32.6310000  40.9739408  62.0939408  33.1340000
  37.1549408  67.1399408  55.5410000  36.6739408  67.0259408  54.7220000
  37.2739408  68.0859408  55.6200000  44.3109408  70.8199408  55.0000000
  43.4729408  70.6859408  54.5580000  44.6099408  69.9379408  55.2200000
  35.1569408  71.4689408  45.1180000  34.3929408  71.0489408  45.5120000
  35.9069408  71.0229408  45.5130000  41.4229408  61.4139408  52.3640000
  41.7979408  61.2949408  53.2370000  42.1729408  61.6199408  51.8060000
  34.3739408  62.0349408  52.5920000  35.0449408  62.5869408  52.9950000
  33.7539408  62.6539408  52.2080000  37.8019408  76.5439408  37.0640000
  37.6149408  75.6139408  37.1890000  37.8329408  76.9049408  37.9500000
  39.5459408  74.8449408  57.9910000  39.9689408  75.6099408  57.6000000
  39.0599408  75.1949408  58.7380000  31.7749408  60.6259408  58.9360000
  32.5749408  61.0719408  59.2140000  31.1079408  61.3129408  58.9280000
  42.7309408  72.2139408  48.9580000  42.2289408  71.4239408  48.7610000
  42.6519408  72.7509408  48.1690000  33.0389408  87.9559408  58.5700000
  33.2659408  87.7619408  57.6600000  32.9049408  88.9029408  58.5870000
  38.8229408  79.2789408  58.8730000  39.0599408  78.7649408  59.6450000
  38.2279408  79.9509408  59.2050000  40.8119408  64.5099408  54.7060000
  39.9129408  64.5729408  55.0290000  40.7219408  64.4639408  53.7540000
  38.1589408  71.4079408  59.5170000  39.1069408  71.5379408  59.5250000
  37.9899408  70.8219408  60.2550000  37.4109408  68.2469408  52.5390000
  37.0039408  67.3889408  52.6570000  36.8979408  68.6629408  51.8460000
  35.9589408  62.4859408  59.6520000  35.4029408  62.4139408  60.4270000
  35.4749408  62.0279408  58.9650000  58.9339408  59.9049408  57.3680000
  59.3039408  60.6489408  57.8430000  59.4589408  59.8439408  56.5700000
  48.8269408  63.5309408  52.3500000  48.8589408  62.6169408  52.6340000
  49.3369408  63.5479408  51.5400000  43.0339408  74.4019408  33.2410000
  43.4299408  74.6769408  32.4150000  42.6019408  73.5729408  33.0360000
  44.6579408  61.6439408  54.3280000  45.2989408  61.5509408  55.0330000
  43.8909408  62.0299408  54.7510000  39.2199408  70.8319408  50.8010000
  38.2959408  70.9889408  50.6070000  39.2279408  70.5439408  51.7140000
  38.1889408  77.1529408  53.5900000  39.0689408  77.0679408  53.9560000
  37.9749408  78.0809408  53.6910000  37.2109408  68.0059408  35.3860000
  36.6419408  68.7579408  35.5510000  37.9689408  68.1489408  35.9520000
  51.0649408  69.6399408  32.0140000  51.5329408  69.0169408  32.5690000
  51.5449408  69.6309408  31.1850000  34.8949408  78.8529408  36.4910000
  35.2919408  79.6979408  36.7040000  35.4089408  78.5259408  35.7530000
  30.8779408  89.1329408  31.2170000  31.1779408  89.6449408  30.4660000
  31.0379408  88.2229408  30.9670000  36.9089408  64.5699408  45.4710000
  36.4269408  65.1219408  44.8560000  36.2819408  64.3849408  46.1700000
  45.2509408  68.2789408  55.3330000  44.5369408  67.6459408  55.4040000
  45.7219408  68.2039408  56.1630000  31.6169408  69.6609408  55.2060000
  32.3259408  69.5369408  55.8370000  32.0529408  69.9679408  54.4120000
  45.4429408  60.1609408  43.2290000  46.1079408  59.5109408  43.4580000
  45.5879408  60.8799408  43.8430000  44.3959408  78.1949408  40.7400000
  44.3709408  78.1429408  41.6950000  44.2869408  77.2889408  40.4480000
  35.1149408  64.0059408  56.8730000  34.1869408  64.1409408  56.6820000
  35.3489408  64.7299408  57.4530000  34.5679408  72.7609408  53.3450000
  34.5269408  73.7069408  53.4870000  34.8839408  72.6679408  52.4460000
  51.5419408  62.2789408  54.3060000  51.1949408  62.1159408  53.4290000
  51.4429408  61.4439408  54.7630000  44.6329408  83.1429408  40.1660000
  44.8209408  83.6079408  39.3500000  44.7559408  82.2189408  39.9490000
  45.3159408  72.0549408  46.3340000  44.9349408  72.8129408  46.7780000
  46.1729408  71.9419408  46.7450000  39.7159408  77.2639408  30.6440000
  40.4809408  76.8889408  30.2080000  40.0779408  77.7609408  31.3780000
  39.6429408  87.8269408  54.9720000  39.4569408  87.5769408  54.0670000
  40.3899408  88.4219408  54.9080000  37.2109408  71.8149408  54.3940000
  36.3699408  72.1359408  54.0660000  37.5599408  72.5409408  54.9100000
  30.1669408  68.8079408  50.3710000  29.8829408  68.0049408  50.8070000
  29.9809408  69.5029408  51.0020000  41.3649408  69.9299408  48.7550000
  40.7509408  69.2719408  48.4300000  41.2129408  69.9549408  49.7000000
  44.3869408  80.9349408  31.0510000  43.5169408  81.2199408  30.7720000
  44.8489408  80.7409408  30.2360000  40.7769408  69.9669408  45.3550000
  41.7099408  70.1599408  45.2610000  40.7469408  69.1889408  45.9110000
  33.5569408  67.1909408  56.0440000  34.3569408  66.6719408  56.1280000
  33.4109408  67.2549408  55.1000000  30.9909408  74.1799408  59.6390000
  31.5389408  74.9439408  59.4570000  30.9489408  74.1369408  60.5940000
  41.3459408  73.1939408  58.8840000  40.7059408  73.7409408  58.4290000
  41.9039408  72.8469408  58.1880000  45.8339408  63.3109408  31.4930000
  46.3929408  62.5349408  31.4550000  45.4889408  63.4019408  30.6050000
  30.8749408  63.4179408  53.9600000  30.5559408  62.5409408  53.7490000
  31.6379408  63.5389408  53.3940000  40.5189408  67.1779408  45.9270000
  40.5439408  66.3239408  46.3590000  40.1409408  66.9999408  45.0660000
  45.9109408  87.6449408  50.9300000  45.4609408  86.9469408  50.4540000
  45.2979408  87.8989408  51.6190000  45.5579408  64.1889408  56.1150000
  44.8629408  64.8469408  56.1260000  45.7909408  64.1009408  55.1910000
  47.6369408  90.0739408  52.6510000  47.4279408  89.3739408  52.0330000
  47.3079408  89.7569408  53.4920000  39.3779408  68.0839408  58.2570000
  38.8019408  68.1769408  57.4980000  40.1869408  68.5259408  58.0000000
  37.9469408  67.0969408  49.7360000  37.9239408  66.1409408  49.7090000
  38.7869408  67.3059408  50.1460000  39.8299408  87.2289408  35.4010000
  38.9329408  87.4469408  35.1470000  40.3679408  87.5429408  34.6740000
  31.1219408  66.0539408  39.6410000  30.6489408  66.3209408  38.8530000
  31.9209408  66.5809408  39.6320000  41.1519408  82.9069408  50.7830000
  41.1849408  81.9589408  50.9060000  40.5209408  83.0349408  50.0740000
  41.0869408  85.7069408  37.3250000  40.8939408  86.1889408  38.1280000
  40.7599408  86.2699408  36.6230000  32.6749408  78.7829408  40.9760000
  33.1839408  79.3299408  41.5740000  33.0549408  78.9529408  40.1140000
  43.9669408  75.5319408  35.7910000  44.1179408  74.5939408  35.6770000
  43.3829408  75.7699408  35.0710000  32.1679408  64.6769408  42.0900000
  31.6919408  65.0179408  41.3330000  31.8439408  65.1909408  42.8290000
  39.7219408  88.0699408  38.6160000  39.4219408  88.0619408  37.7080000
  39.1469408  88.6979408  39.0530000  41.7279408  80.3879408  51.2710000
  41.6209408  79.5149408  50.8940000  42.3419408  80.2629408  51.9960000
  43.8599408  66.7389408  32.4700000  43.0679408  67.2019408  32.1940000
  43.5509408  66.0939408  33.1060000  34.9999408  89.5199408  48.2440000
  35.1339408  89.6689408  49.1800000  34.6149408  90.3359408  47.9240000
  40.5059408  79.8669408  36.1100000  39.8559408  79.5139408  35.5030000
  39.9949408  80.3779408  36.7380000  43.0909408  65.1259408  34.6640000
  43.6829408  65.1169408  35.4160000  42.3979408  64.5079408  34.8970000
  33.3269408  84.6049408  49.3680000  34.2059408  84.2289408  49.3230000
  33.4169408  85.4729408  48.9750000  30.0379408  81.4779408  34.6990000
  30.9309408  81.1549408  34.5830000  29.4899408  80.8369408  34.2450000
  42.8429408  84.9729408  51.9030000  42.4879408  84.2539408  51.3800000
  43.3269408  85.5089408  51.2750000  34.6779408  82.4899408  46.5850000
  35.2769408  83.2359408  46.6160000  35.2109408  81.7439408  46.8610000
  35.7979408  81.3969408  36.7650000  36.4539408  81.7799408  37.3470000
  34.9819408  81.4349408  37.2640000  32.3099408  78.7869408  35.5240000
  31.6629408  78.6259408  36.2120000  33.1549408  78.6519408  35.9530000
  36.4959408  78.9039408  32.3800000  35.9039408  79.5189408  31.9470000
  35.9969408  78.0889408  32.4350000  35.8519408  87.3879408  59.9390000
  35.2559408  87.5509408  59.2070000  35.3619408  86.8089408  60.5230000
  37.2649408  83.0889408  33.3920000  37.5729408  83.8519408  32.9040000
  37.6459408  83.1919408  34.2640000  40.3759408  83.4779408  47.1180000
  39.6279408  83.2069408  47.6500000  40.5139408  82.7509408  46.5100000
  39.1669408  65.4379408  35.7480000  38.8509408  65.6709408  34.8750000
  39.4189408  64.5179408  35.6750000  34.2729408  80.1469408  42.5690000
  33.8439408  80.9559408  42.8460000  35.0339408  80.0699408  43.1450000
  33.2469408  75.4839408  33.2100000  33.6359408  76.1419408  32.6340000
  33.7999408  75.4919408  33.9910000  34.1789408  77.7809408  38.9290000
  34.2309408  78.1619408  38.0530000  33.5919408  77.0319408  38.8310000
  41.1639408  89.3629408  44.0990000  41.9599408  89.0219408  44.5070000
  40.8289408  90.0059408  44.7250000  40.1639408  74.3359408  47.9330000
  39.7059408  73.4989408  47.8530000  40.9369408  74.2409408  47.3770000
  36.7049408  84.8669408  37.0240000  37.3139408  84.3839408  36.4660000
  36.0519408  85.2189408  36.4190000  30.7809408  77.7779408  33.0700000
  31.3749408  77.8329408  33.8190000  31.3059408  78.0689408  32.3250000
  36.9129408  86.0559408  43.0170000  36.7609408  86.9919408  43.1450000
  37.8609408  85.9539408  43.1010000  39.9689408  85.5049408  41.5150000
  40.0609408  86.2039408  42.1630000  39.5309408  85.9229408  40.7730000
  42.8559408  62.0519408  39.6080000  43.6339408  61.5559408  39.8640000
  42.6389408  62.5739408  40.3800000  40.9059408  82.2719408  31.9450000
  40.8709408  81.3879408  31.5790000  40.4339408  82.8129408  31.3120000
  30.6149408  74.7429408  32.4330000  29.9859408  75.4539408  32.5520000
  31.4659408  75.1429408  32.6100000  45.8529408  83.8829408  37.9390000
  45.9139408  83.7729408  36.9900000  46.7569408  84.0099408  38.2250000
  37.6779408  75.6369408  48.2270000  37.3809408  75.6059408  49.1360000
  38.4549408  75.0779408  48.2080000  34.3649408  82.5619408  40.9050000
  33.8259408  83.0119408  41.5560000  35.0559408  83.1889408  40.6910000
  41.6299408  83.2589408  41.2250000  41.9139408  83.2529408  40.3110000
  40.9499408  83.9319408  41.2610000  33.3079408  82.3489408  44.1740000
  33.6449408  83.1049408  43.6930000  33.8179408  82.3319408  44.9840000
  50.0859408  63.0319408  31.4180000  50.4329408  62.3479408  30.8450000
  49.2249408  62.7079408  31.6830000  30.9919408  59.9949408  55.7370000
  31.7769408  60.0659408  55.1940000  31.2419408  60.3889408  56.5730000
  30.7819408  76.6869408  45.9170000  30.1779408  76.2529408  46.5200000
  30.3069408  77.4619408  45.6180000  36.7389408  84.1779408  39.9850000
  36.8389408  85.0859408  40.2700000  36.8689408  84.2079408  39.0370000
  40.4329408  61.4439408  45.7220000  40.5989408  61.4719408  46.6650000
  40.7079408  62.3039408  45.4050000  41.3089408  79.2199408  55.3400000
  42.0399408  79.3309408  54.7320000  41.4799408  79.8519408  56.0380000
  33.3309408  79.3729408  48.2010000  32.4419408  79.5659408  48.5000000
  33.8949408  79.6769408  48.9110000  33.1059408  81.9459408  38.1800000
  33.4189408  82.7029408  38.6760000  32.1519408  82.0229408  38.2010000
  37.0619408  81.4499408  39.2770000  37.2629408  82.2119408  39.8210000
  36.5489408  80.8769408  39.8470000  42.4839408  86.0199408  59.2340000
  42.1589408  85.9759408  60.1330000  41.7009408  86.1619408  58.7020000
  41.2699408  86.0949408  46.5260000  41.8939408  86.0249408  45.8040000
  41.2699408  85.2259408  46.9290000  40.8659408  78.4719408  32.7640000
  40.6719408  79.4039408  32.8690000  41.5619408  78.2989408  33.3990000
  43.6439408  60.4429408  31.8470000  42.8629408  60.2199408  31.3410000
  43.6489408  61.3999408  31.8730000  33.1739408  60.5829408  34.5740000
  34.1289408  60.6499408  34.5680000  32.8779408  61.4079408  34.9580000
  39.4209408  81.4549408  37.9740000  38.8169408  81.4819408  38.7160000
  40.2109408  81.8929408  38.2920000  37.9939408  81.3219408  44.6600000
  38.8919408  81.3319408  44.9910000  37.9779408  82.0019408  43.9870000
  38.2409408  79.7249408  55.2630000  38.0479408  79.1849408  56.0300000
  39.1959408  79.7239408  55.2030000  42.9509408  61.3049408  42.5350000
  43.5739408  60.6049408  42.7320000  42.1069408  60.9639408  42.8300000
  43.2739408  86.0209408  35.5640000  43.0779408  85.8549408  36.4860000
  42.5129408  85.6839408  35.0920000  43.9679408  83.1959408  42.7510000
  43.0609408  83.1179408  42.4530000  44.4749408  83.3119408  41.9480000
  37.9659408  83.2009408  54.6000000  38.6309408  82.7009408  54.1270000
  37.9549408  84.0549408  54.1660000  46.6659408  72.2829408  31.1970000
  46.1439408  73.0379408  30.9240000  46.2319408  71.9649408  31.9890000
  44.5009408  72.8519408  35.8720000  44.3729408  72.6739408  36.8040000
  43.6179408  72.8409408  35.5020000  40.8959408  79.7499408  39.9370000
  40.1039408  79.8069408  40.4710000  41.6099408  79.9329408  40.5480000
  36.7689408  88.4729408  44.2330000  37.3599408  89.2059408  44.4070000
  35.9639408  88.6979408  44.6990000  39.7699408  82.6009408  56.6800000
  39.2829408  82.6389408  55.8560000  39.7329408  83.4939408  57.0220000
  57.3529408  60.3099408  42.8330000  57.5099408  59.6729408  43.5300000
  57.9369408  61.0399408  43.0390000  42.1129408  78.3489408  37.7370000
  41.7449408  78.5769408  38.5910000  41.5649408  78.8179408  37.1070000
  31.4539408  89.7109408  45.8930000  31.4329408  90.6619408  46.0040000
  32.2849408  89.5399408  45.4500000  36.8329408  80.5419408  47.8900000
  37.4509408  79.8449408  47.6710000  36.2749408  80.1639408  48.5700000
  38.3579408  64.1779408  31.8600000  38.4489408  64.8209408  32.5630000
  37.5369408  63.7239408  32.0540000  36.1329408  83.5059408  50.1000000
  36.3269408  83.2889408  49.1880000  36.9599408  83.8419408  50.4480000
  40.2109408  88.4339408  41.9620000  41.0079408  88.2959408  41.4500000
  40.5229408  88.6039408  42.8510000  31.6809408  88.4499408  37.5820000
  32.3499408  87.9409408  37.1260000  30.8959408  87.9039408  37.5440000
  33.3539408  84.7089408  39.0660000  33.7559408  85.5449408  39.3010000
  32.5179408  84.9489408  38.6650000  31.4129408  86.7549408  30.3960000
  32.1889408  87.0679408  29.9310000  31.2349408  85.8959408  30.0140000
  31.5119408  79.0599408  43.6060000  30.8219408  79.4449408  43.0660000
  32.0049408  78.5029408  43.0030000  33.9449408  86.8669408  48.1460000
  33.7629408  86.8199408  47.2080000  34.4529408  87.6719408  48.2510000
  42.9559408  81.3659408  36.3640000  43.4859408  81.8059408  35.6990000
  42.4029408  80.7609408  35.8690000  33.4409408  66.1809408  31.9050000
  34.0029408  66.8479408  31.5100000  33.9759408  65.7989408  32.6010000
  37.1949408  82.4749408  58.1130000  36.6079408  82.3649408  57.3650000
  38.0739408  82.3999408  57.7400000  30.1369408  63.5589408  35.8370000
  29.9919408  62.6449408  35.5950000  30.0729408  63.5669408  36.7920000
  45.3399408  80.8529408  58.1340000  44.7079408  81.5289408  57.8920000
  46.1799408  81.1839408  57.8140000  49.9039408  60.2909408  56.3150000
  49.3069408  60.0529408  57.0240000  50.2959408  61.1169408  56.5980000
  38.6959408  64.9359408  56.2190000  38.5659408  64.8349408  57.1620000
  37.9669408  65.4869408  55.9330000  35.0549408  60.9999408  57.6170000
  35.2369408  61.8089408  57.1400000  34.9239408  60.3429408  56.9330000
  34.7479408  86.4299408  32.0810000  34.8309408  85.7089408  32.7050000
  33.9279408  86.8609408  32.3190000  39.2759408  86.4629408  44.7030000
  39.7309408  86.2569408  45.5190000  39.1089408  87.4049408  44.7520000
  36.9949408  75.9949408  50.7340000  36.4209408  75.7369408  51.4560000
  36.9939408  76.9519408  50.7580000  35.5179408  80.8639408  30.6340000
  34.6129408  80.9029408  30.3240000  35.8689408  81.7369408  30.4600000
  33.9199408  83.7329408  57.9040000  33.7749408  82.7969408  57.7640000
  34.6069408  83.7729408  58.5690000  44.6979408  85.7839408  49.6430000
  44.8279408  85.7939408  48.6940000  44.6369408  84.8559408  49.8670000
  41.6579408  89.4879408  55.1230000  41.5199408  90.2759408  55.6490000
  42.5939408  89.3049408  55.2060000  35.6269408  85.5319408  52.0670000
  36.1349408  85.9269408  51.3580000  35.2669408  84.7309408  51.6870000
  38.4599408  62.5539408  54.9290000  38.0919408  61.8119408  55.4080000
  38.4689408  63.2689408  55.5650000  33.5699408  80.9729408  57.9310000
  32.6959408  80.8599408  57.5580000  34.1639408  80.6609408  57.2500000
  41.6979408  80.0789408  59.7730000  40.8099408  79.8989408  59.4640000
  42.0089408  79.2409408  60.1130000  40.6369408  81.0749408  45.7480000
  41.0509408  80.3259408  46.1760000  40.8889408  80.9959408  44.8280000
  37.8009408  77.6069408  56.9660000  37.9509408  78.0929408  57.7770000
  38.6709408  77.3129408  56.6970000  44.6939408  87.6009408  59.4540000
  43.7959408  87.3609408  59.6810000  44.6029408  88.1929408  58.7070000
  44.6019408  88.8039408  53.5100000  45.1489408  88.3629408  54.1610000
  44.6489408  89.7299408  53.7450000  38.0119408  85.6129408  59.1090000
  37.3469408  85.9979408  59.6800000  37.5689408  85.4959408  58.2690000
  29.8979408  85.6919408  52.9550000  29.7849408  84.8959408  53.4740000
  30.8379408  85.7319408  52.7780000  38.7329408  85.2859408  32.7840000
  39.4529408  85.3559408  32.1580000  38.2929408  86.1349408  32.7390000
  35.4859408  77.0279408  55.4590000  35.3769408  76.1209408  55.7470000
  36.3439408  77.2849408  55.7970000  39.9189408  63.5539408  51.8240000
  39.1149408  63.4609408  52.3350000  40.5089408  62.8899408  52.1800000
  41.3379408  88.9519408  57.8980000  40.3879408  88.9459408  57.7800000
  41.6909408  88.7969408  57.0220000  38.4839408  72.6569408  42.7750000
  38.7579408  73.2109408  42.0450000  39.2489408  72.1129408  42.9640000
  34.8689408  82.0059408  34.4930000  35.4839408  82.3369408  33.8380000
  35.3879408  81.9349408  35.2950000  31.1839408  83.8679408  32.2820000
  31.7039408  83.3719408  31.6500000  31.6219408  83.7219408  33.1200000
  31.2759408  80.9209408  52.3260000  31.5259408  80.2529408  51.6880000
  31.9619408  81.5849408  52.2600000  40.8449408  62.1909408  58.1290000
  39.9649408  61.9919408  57.8090000  40.7209408  62.4099408  59.0520000
  42.1609408  81.0939408  57.1720000  41.3539408  81.5889408  57.0280000
  42.4389408  81.3399408  58.0540000  31.9099408  86.0429408  56.4380000
  31.0299408  86.3809408  56.2760000  31.8099408  85.4669408  57.1960000
  42.1069408  88.3369408  52.1520000  42.8629408  88.3479408  52.7390000
  41.9139408  89.2609408  51.9920000  36.9049408  89.6589408  54.4020000
  37.4049408  89.1249408  55.0190000  37.5369408  89.8999408  53.7250000
  45.8789408  62.1039408  51.6990000  45.5149408  61.9559408  52.5720000
  46.7829408  61.7959408  51.7610000  38.8949408  81.6709408  49.8570000
  38.2309408  81.5909408  49.1720000  38.9859408  80.7849408  50.2080000
  44.5349408  63.3569408  58.7370000  44.1719408  62.4879408  58.5610000
  45.0539408  63.5609408  57.9590000  47.1019408  75.7249408  55.9070000
  47.7749408  76.4049408  55.8650000  46.2939408  76.1989408  56.1020000
  43.0649408  61.5539408  50.0000000  43.9649408  61.6039408  50.3230000
  42.9399408  60.6309408  49.7800000  38.2529408  61.2669408  58.1430000
  37.5959408  61.4079408  58.8250000  38.1889408  60.3329408  57.9390000
  40.1359408  82.0139408  53.1660000  40.2959408  82.4989408  52.3560000
  40.9959408  81.9489408  53.5810000  48.4869408  68.0279408  31.6070000
  49.1999408  68.3819408  32.1380000  48.0509408  68.7999408  31.2450000
  45.1319408  77.2609408  56.3960000  45.2409408  77.6919408  57.2440000
  44.5449408  76.5269408  56.5740000  37.2789408  86.4109408  56.2950000
  36.3539408  86.2849408  56.0820000  37.7199408  86.4259408  55.4460000
  44.4529408  80.9099408  33.7780000  44.3679408  80.7669408  32.8350000
  45.0229408  80.2019408  34.0770000  37.1399408  87.5469408  47.6840000
  36.8289408  87.2759408  46.8200000  36.5409408  88.2459408  47.9460000
  55.0939408  63.0129408  55.4040000  54.7599408  62.6939408  54.5660000
  55.6369408  62.2969408  55.7340000  39.0859408  61.1759408  31.1750000
  38.4019408  60.5059408  31.1510000  38.6729408  61.9539408  30.8020000
  38.0329408  89.1679408  40.5370000  38.6119408  88.8459408  41.2270000
  37.5109408  89.8489408  40.9610000  42.8329408  76.8609408  43.8650000
  42.4649408  75.9809408  43.9370000  42.1939408  77.3459408  43.3420000
  38.4229408  88.5869408  57.7970000  38.0969408  88.0029408  57.1120000
  38.0209408  88.2599408  58.6020000  43.1219408  75.2349408  56.3590000
  42.9999408  74.2859408  56.3360000  43.2029408  75.4879408  55.4390000
  35.5019408  60.1759408  50.8970000  35.1519408  60.8029408  51.5300000
  35.3639408  59.3209408  51.3060000  44.6709408  67.7959408  35.3550000
  45.3629408  67.6749408  34.7050000  44.3999408  66.9069408  35.5840000
  42.2429408  66.3459408  37.8770000  43.0639408  65.9189408  37.6340000
  41.5769408  65.9019408  37.3520000  40.7739408  66.2109408  59.9660000
  41.1209408  66.8889408  60.5450000  40.1539408  66.6719408  59.4000000
  54.1399408  61.3499408  40.9420000  53.2239408  61.4689408  41.1920000
  54.1099408  60.7419408  40.2040000  30.0609408  66.7279408  47.5830000
  30.7789408  67.3319408  47.7720000  29.7179408  67.0209408  46.7390000
  49.3879408  72.0239408  31.7080000  48.4449408  72.1189408  31.5730000
  49.5609408  71.0969408  31.5410000  48.6229408  64.8899408  42.5080000
  49.1929408  64.4829408  41.8550000  48.9969408  65.7609408  42.6440000
  57.7609408  62.7849408  33.9490000  58.2159408  62.0179408  33.6010000
  57.0409408  62.9349408  33.3370000  45.8699408  67.0169408  30.6600000
  45.2029408  66.8519408  31.3270000  46.4569408  67.6569408  31.0610000
  30.4629408  82.8909408  43.2580000  30.2129408  81.9829408  43.0880000
  31.3599408  82.8359408  43.5870000  44.7979408  71.2589408  50.4950000
  44.1209408  71.7319408  50.0110000  45.3779408  71.9449408  50.8280000
  46.7079408  67.0059408  33.8860000  47.1969408  67.5149408  33.2390000
  46.7849408  66.0999408  33.5860000  35.6159408  63.9159408  47.9620000
  36.1299408  63.4149408  48.5940000  35.1099408  63.2559408  47.4870000
  40.5079408  67.1349408  50.9140000  41.3479408  66.7929408  50.6060000
  40.6289408  67.2549408  51.8560000  35.4309408  68.9249408  43.3460000
  34.5449408  68.8439408  43.6980000  35.4069408  69.7229408  42.8170000
  59.5329408  60.6999408  33.3760000  60.1959408  60.7629408  32.6890000
  59.1429408  59.8339408  33.2540000  31.2429408  85.3819408  41.0890000
  31.8839408  84.7989408  40.6820000  30.4409408  84.8619408  41.1370000
  30.5589408  63.4369408  32.1060000  30.9039408  63.9419408  31.3700000
  29.6199408  63.3699408  31.9320000  49.8289408  72.1619408  34.8400000
  50.2879408  72.3219408  35.6640000  49.5549408  73.0299408  34.5450000
  31.6959408  74.5629408  35.6540000  31.0739408  74.5129408  34.9270000
  31.7619408  73.6639408  35.9750000  49.8959408  67.7829408  59.2340000
  49.4559408  67.5179408  58.4260000  49.2739408  67.5689408  59.9280000
  51.2669408  60.7559408  38.5830000  51.3999408  61.0999408  39.4660000
  50.5919408  60.0849408  38.6870000  54.1839408  64.4299408  59.2750000
  53.9199408  65.0219408  58.5710000  53.4349408  64.4179408  59.8720000
  57.0209408  60.6149408  53.3560000  56.1119408  60.3729408  53.1770000
  57.4589408  59.7839408  53.5400000  54.9759408  61.0289408  50.1130000
  54.6729408  61.3969408  49.2830000  54.4759408  61.4979408  50.7810000
  30.1739408  71.8329408  41.6060000  30.4409408  71.6049408  42.4960000
  30.8999408  72.3529408  41.2630000  34.7929408  85.8129408  35.2480000
  34.3529408  86.6369408  35.4600000  34.0799408  85.1949408  35.0880000
  30.0309408  66.3349408  37.2890000  29.4529408  65.8939408  36.6650000
  30.7089408  66.7369408  36.7450000  35.4109408  61.6389408  44.1010000
  36.3529408  61.5459408  43.9540000  35.1199408  62.2449408  43.4200000
  50.9789408  71.3509408  58.1040000  51.4849408  70.7389408  58.6380000
  51.4719408  71.4199408  57.2860000  42.0409408  63.7889408  30.3090000
  41.4489408  64.5119408  30.1020000  42.7159408  63.8299408  29.6310000
  54.4599408  62.0869408  47.5660000  54.6979408  62.1839408  46.6440000
  53.9199408  61.2969408  47.5930000  38.5499408  64.3989408  49.4280000
  39.1569408  64.0959408  50.1040000  37.8149408  63.7869408  49.4750000
  57.6739408  67.2299408  58.4930000  58.1929408  68.0039408  58.2730000
  57.5139408  66.7999408  57.6530000  51.2339408  61.7299408  41.0500000
  51.0569408  61.7479408  41.9900000  51.0979408  62.6329408  40.7630000
  47.0459408  69.7769408  60.0950000  46.9329408  70.7139408  60.2500000
  47.3599408  69.7189408  59.1920000  57.9949408  61.5439408  39.2960000
  57.6689408  60.7739408  39.7610000  57.5859408  61.4939408  38.4320000
  34.1849408  79.2609408  45.5620000  33.2749408  79.4589408  45.3410000
  34.2369408  79.3929408  46.5080000  32.6959408  64.0899408  51.8710000
  32.3059408  63.5869408  51.1560000  32.9999408  64.8979408  51.4560000
  42.1399408  67.4559408  42.2220000  43.0799408  67.4309408  42.0430000
  41.9669408  66.6499408  42.7080000  32.6369408  68.9269408  38.6340000
  33.0599408  69.1289408  39.4690000  31.7709408  69.3279408  38.7010000
  31.9669408  68.2519408  48.4270000  32.8179408  68.6559408  48.5950000
  31.4089408  68.5619408  49.1400000  36.0659408  63.5049408  33.3350000
  35.7129408  64.3689408  33.5490000  35.3759408  63.0859408  32.8200000
  50.1629408  63.2489408  37.1740000  50.7889408  62.6829408  37.6270000
  49.4289408  63.3299408  37.7820000  35.8869408  70.2809408  35.3640000
  35.6359408  70.8369408  36.1020000  35.8729408  70.8659408  34.6070000
  45.9519408  75.9449408  30.6750000  45.0699408  75.6069408  30.8280000
  46.3909408  75.2529408  30.1800000  54.4309408  68.2329408  30.1660000
  54.9999408  68.8329408  29.6840000  54.9499408  67.9689408  30.9260000
  50.4459408  65.7249408  35.9510000  50.6899408  64.9389408  36.4390000
  51.2809408  66.0999408  35.6680000  34.0989408  77.2339408  50.9040000
  33.5579408  77.6299408  50.2210000  34.7849408  77.8809408  51.0720000
  45.0709408  63.1099408  41.9730000  45.9309408  62.7019408  41.8700000
  44.5769408  62.4959408  42.5170000  31.2549408  66.8109408  44.1630000
  30.3669408  66.7379408  44.5100000  31.5479408  67.6809408  44.4330000
  31.2039408  78.3319408  38.1590000  31.7869408  78.4599408  38.9080000
  30.4139408  77.9419408  38.5330000  54.7879408  62.1149408  35.8990000
  54.1839408  61.3719408  35.9120000  55.6579408  61.7159408  35.9040000
  35.1689408  74.5189408  46.3780000  35.8409408  74.4369408  47.0540000
  34.4199408  74.9079408  46.8290000  34.4059408  70.8699408  31.0480000
  33.6999408  71.4429408  31.3470000  35.1239408  71.0339408  31.6600000
  46.7859408  78.4209408  31.6810000  46.7219408  77.5299408  31.3370000
  47.4129408  78.8559408  31.1040000  53.2589408  60.4689408  44.2250000
  53.7039408  59.7619408  43.7580000  53.9489408  61.1049408  44.4120000
  38.5139408  78.9249408  34.6940000  38.4449408  77.9949408  34.9100000
  37.8739408  79.0569408  33.9950000  30.9149408  72.1979408  33.5130000
  30.7669408  72.8599408  32.8380000  30.2449408  71.5339408  33.3490000
  53.0209408  68.4339408  33.5050000  53.2149408  69.3699408  33.4500000
  53.4379408  68.1499408  34.3190000  48.3969408  61.7669408  34.5070000
  48.1719408  61.0319408  35.0770000  49.3529408  61.8069408  34.5340000
  30.9789408  71.7839408  36.4660000  30.8059408  71.5689408  35.5490000
  30.8379408  70.9619408  36.9360000  48.5449408  66.2349408  38.9460000
  48.6869408  66.3049408  38.0020000  48.8589408  67.0669408  39.2990000
  47.5829408  62.1169408  41.6990000  47.5359408  61.9249408  42.6360000
  47.4419408  61.2719408  41.2740000  53.0879408  66.0449408  32.2860000
  53.1179408  66.9629408  32.5550000  52.5769408  66.0479408  31.4770000
  53.0929408  64.5809408  56.6170000  53.7929408  64.1529408  56.1250000
  52.4559408  64.8409408  55.9520000  37.9229408  60.9289408  37.0610000
  38.3859408  61.4039408  37.7510000  37.6119408  61.6119408  36.4670000
  43.7059408  60.8079408  58.7940000  42.8089408  60.6749408  59.0990000
  44.2449408  60.6919408  59.5770000  49.5519408  73.4549408  59.3200000
  49.6209408  72.9329408  60.1200000  49.9389408  72.9039408  58.6400000
  32.6029408  76.3849408  57.6050000  32.3689408  76.0419408  56.7430000
  33.5349408  76.1849408  57.6980000  30.9759408  73.9229408  56.7960000
  31.2779408  74.0099408  57.7000000  31.7439408  73.6149408  56.3150000
  54.1129408  61.7349408  58.1150000  54.7809408  61.4299408  57.5010000
  54.4059408  62.6089408  58.3730000  30.6829408  64.4809408  56.5800000
  30.8219408  64.3349408  55.6450000  30.8769408  65.4089408  56.7100000
  32.9169408  70.2559408  52.9200000  32.3259408  70.8239408  52.4250000
  33.4999408  70.8599408  53.3800000  56.5439408  65.5789408  55.9390000
  55.8209408  64.9659408  55.8060000  57.3229408  65.0939408  55.6660000
  32.6489408  67.0719408  53.3300000  32.9159408  67.8839408  52.8980000
  32.1039408  66.6239408  52.6820000  33.2349408  78.6979408  54.7910000
  32.6099408  77.9739408  54.8150000  34.0829408  78.2909408  54.9680000
  35.1829408  75.2449408  58.7310000  35.2499408  74.6459408  57.9880000
  36.0909408  75.4169408  58.9820000  49.5569408  79.2589408  34.7920000
  49.8279408  78.5009408  34.2750000  49.5719408  79.9889408  34.1730000
  31.7139408  64.7479408  34.2270000  31.3929408  64.3309408  33.4270000
  31.0859408  64.4889408  34.9010000  36.1619408  81.5309408  55.3790000
  36.6229408  82.3089408  55.0660000  36.8009408  80.8229408  55.2930000
  57.8889408  62.9389408  30.7890000  57.1389408  62.3659408  30.9500000
  57.5709408  63.8159408  31.0000000  48.6329408  63.7929408  57.6990000
  49.4459408  63.2949408  57.6140000  48.5859408  64.0199408  58.6280000
  59.8499408  62.5939408  58.7080000  59.3119408  62.9239408  59.4270000
  59.7199408  63.2259408  58.0010000  32.5169408  63.7909408  58.9940000
  32.3399408  64.7299408  59.0370000  32.0049408  63.4829408  58.2460000
  39.8899408  71.8059408  47.1790000  40.2009408  71.2239408  47.8720000
  40.1229408  71.3559408  46.3660000  32.2539408  75.9619408  54.7120000
  31.4929408  75.4689408  54.4070000  33.0069408  75.4519408  54.4130000
  30.1209408  67.1739408  55.0360000  31.0009408  67.3079408  54.6820000
  29.6779408  68.0119408  54.9010000  35.2779408  71.5559408  37.5480000
  34.8449408  70.9229408  38.1220000  35.5749408  72.2489408  38.1370000
  36.0519408  66.0389408  42.9900000  36.7619408  65.9259408  42.3580000
  35.9799408  66.9859408  43.1040000  30.5089408  69.7659408  43.8980000
  29.8269408  69.7809408  44.5700000  30.2249408  69.0889408  43.2830000
  33.1369408  75.9089408  47.4420000  33.2879408  76.7359408  47.8990000
  32.3239408  76.0479408  46.9560000  29.8739408  69.2279408  57.4500000
  30.4399408  69.4969408  56.7260000  30.4529408  68.7489408  58.0430000
  43.7419408  66.4529408  45.6390000  44.2449408  66.8479408  44.9270000
  43.4279408  67.1979408  46.1520000  33.9139408  74.3159408  50.0960000
  33.3239408  75.0459408  50.2810000  33.8699408  74.2069408  49.1460000
  47.2159408  62.2419408  44.2630000  47.4569408  61.6839408  45.0030000
  46.9959408  63.0849408  44.6600000  35.4609408  74.3169408  56.1370000
  34.8509408  73.6819408  55.7600000  36.2679408  73.8219408  56.2740000
  36.1759408  63.6459408  53.8610000  37.0319408  63.4339408  54.2340000
  35.6269408  63.8449408  54.6190000  30.6509408  74.1239408  53.5250000
  29.7119408  73.9479408  53.5810000  30.9809408  73.4709408  52.9080000
  32.0539408  72.5049408  51.6720000  32.7779408  73.0489408  51.3630000
  31.3189408  72.7389408  51.1060000  34.6389408  68.2059408  30.3610000
  34.5499408  69.1419408  30.5400000  35.5799408  68.0399408  30.4160000
  33.5789408  65.2939408  44.7230000  34.2869408  65.7469408  44.2640000
  32.8469408  65.9109408  44.7040000  44.3679408  68.5949408  50.4910000
  44.4269408  69.5469408  50.5680000  44.3979408  68.4279408  49.5490000
  32.4339408  89.4479408  51.3220000  31.7669408  88.7629408  51.3040000
  32.1439408  90.0829408  50.6670000  31.7099408  64.5589408  47.3620000
  31.2679408  64.1129408  46.6390000  31.0809408  65.2169408  47.6580000
  33.7859408  63.1389408  35.5410000  34.7399408  63.2159408  35.5740000
  33.5029408  63.8839408  35.0110000  49.5539408  60.0589408  47.2370000
  49.8519408  60.3489408  46.3750000  48.6799408  60.4369408  47.3290000
  46.2369408  62.5929408  37.0360000  46.4979408  61.7169408  36.7530000
  47.0569408  63.0199408  37.2820000  47.8549408  63.6489408  38.8230000
  48.0219408  64.5789408  38.9790000  47.6949408  63.2839408  39.6930000
  51.6989408  60.0119408  49.4060000  52.3109408  59.7979408  48.7010000
  50.9559408  60.4209408  48.9620000  51.1139408  62.1109408  34.7390000
  51.1109408  62.6599408  35.5240000  51.5609408  62.6399408  34.0780000
  31.0329408  85.6039408  43.9710000  30.2089408  85.2399408  44.2930000
  31.2309408  85.0919408  43.1870000  31.9339408  89.6879408  48.6420000
  32.2469408  88.7839408  48.6550000  31.5109408  89.7829408  47.7880000
  31.1559408  78.4609408  50.0400000  30.2709408  78.7809408  49.8660000
  31.0349408  77.5459408  50.2950000  32.0799408  88.3339408  33.5080000
  31.6479408  88.7749408  32.7770000  32.4669408  89.0439408  34.0210000
  32.7359408  83.2419408  51.7040000  32.8889408  83.6109408  50.8350000
  32.5469408  83.9999408  52.2570000  33.0529408  86.7679408  45.5720000
  32.4119408  86.2939408  45.0430000  33.1159408  87.6289408  45.1590000
  31.2079408  84.3789408  58.9760000  30.7519408  83.5889408  59.2650000
  32.1189408  84.1049408  58.8680000  55.5159408  62.1409408  32.2740000
  54.6969408  62.6339408  32.2290000  55.2789408  61.3189408  32.7030000
  41.7949408  64.1809408  45.4660000  41.0579408  64.3869408  46.0420000
  42.4969408  64.7619408  45.7580000  30.8829408  75.8929408  50.9960000
  31.0199408  75.6469408  51.9110000  30.0429408  75.4959408  50.7640000
  37.1339408  83.6299408  47.5170000  36.9599408  84.4419408  47.0430000
  37.4829408  83.0339408  46.8540000  34.8129408  80.6049408  50.3340000
  34.8989408  81.5329408  50.5520000  34.8869408  80.1529408  51.1740000
  45.4609408  83.4619408  33.0360000  45.9439408  83.2799408  32.2300000
  45.3659408  82.6069408  33.4560000  43.5109408  87.9189408  45.3630000
  44.4469408  87.8499408  45.5500000  43.2639408  87.0499408  45.0470000
  32.8799408  87.4629408  42.2670000  32.0239408  87.0379408  42.2150000
  33.2679408  87.3299408  41.4030000  30.1709408  85.8719408  33.6420000
  30.6029408  85.3299408  32.9810000  30.8439408  86.4929408  33.9200000
  57.3569408  61.1799408  36.2670000  57.6309408  61.6629408  35.4870000
  58.0139408  60.4909408  36.3660000  39.8979408  88.3239408  47.5680000
  40.5479408  87.6229408  47.5210000  39.0609408  87.8869408  47.4100000
  30.6229408  85.0849408  49.8260000  31.5509408  84.8679408  49.9130000
  30.5909408  85.7159408  49.1080000  42.2699408  76.4249408  58.7760000
  42.9509408  77.0969408  58.8060000  42.4539408  75.9319408  57.9760000
  30.9209408  89.9589408  39.9480000  31.4189408  89.3979408  39.3520000
  30.0779408  90.0829408  39.5120000  30.1289408  60.2789408  36.1440000
  30.1339408  60.2069408  35.1890000  30.6739408  59.5509408  36.4420000
  47.8029408  61.4979408  32.0150000  47.8179408  61.3079408  32.9530000
  47.9959408  60.6579408  31.5970000  37.8459408  64.6539408  58.8310000
  38.2209408  64.7389408  59.7070000  37.3629408  63.8279408  58.8550000
  30.5509408  83.0329408  38.3860000  30.1859408  83.4379408  37.6000000
  29.8569408  83.1109408  39.0410000  51.0919408  62.8469408  57.7180000
  51.6289408  62.2659408  58.2570000  51.7059408  63.5029408  57.3870000
  47.6129408  80.7449408  33.2240000  47.4149408  79.8939408  32.8320000
  47.7729408  81.3209408  32.4770000  59.7389408  61.2499408  52.7270000
  59.9719408  60.5979408  52.0660000  58.7969408  61.1349408  52.8560000
  44.6139408  84.3099408  58.8680000  43.7559408  84.7329408  58.8890000
  45.0889408  84.7639408  58.1720000  31.4839408  80.5129408  56.1210000
  31.9909408  79.8839408  55.6070000  30.8779408  80.9039408  55.4910000
  56.4009408  70.1289408  59.6700000  56.3809408  70.6799408  60.4520000
  56.2529408  70.7369408  58.9450000  56.6279408  65.1689408  60.1560000
  55.8039408  64.7719408  59.8740000  56.6229408  66.0389408  59.7570000
  32.8429408  85.7119408  53.1490000  33.7689408  85.4969408  53.0340000
  32.8479408  86.5679408  53.5780000  56.1169408  60.6769408  56.5390000
  55.8869408  60.0879408  55.8210000  56.9099408  60.2969408  56.9170000
  54.0979408  72.2559408  59.3850000  53.7049408  73.1289408  59.3770000
  53.3609408  71.6629408  59.5350000  33.7959408  62.6399408  31.5360000
  33.1589408  63.0979408  30.9870000  33.2689408  62.0539408  32.0780000
  46.8359408  61.2099408  57.0900000  47.4759408  60.5949408  57.4500000
  47.1229408  62.0669408  57.4050000  33.1729408  89.6979408  53.8650000
  32.8949408  89.4999408  52.9710000  33.6089408  90.5479408  53.7990000
  32.7039408  81.1609408  30.5350000  31.8629408  81.6189408  30.5440000
  32.8899408  81.0209408  29.6060000  53.9579408  61.6669408  53.3620000
  53.0839408  61.9459408  53.6370000  54.0009408  60.7409408  53.6010000
  35.0389408  80.2599408  53.3180000  35.4329408  80.8059408  53.9980000
  34.2329408  79.9279408  53.7140000  52.3159408  60.6029408  30.0200000
  52.8489408  60.3259408  30.7650000  52.9519408  60.8169408  29.3370000
  32.0639408  62.4419408  49.6400000  32.0359408  63.1009408  48.9460000
  31.3919408  61.8059408  49.3950000  46.0279408  89.2599408  48.5900000
  45.0909408  89.1729408  48.4130000  46.1359408  88.9249408  49.4800000
  30.8689408  66.2169408  30.9050000  31.1979408  66.6709408  30.1290000
  31.6129408  66.1979408  31.5060000  34.5629408  85.8619408  55.9740000
  33.6279408  86.0279408  56.0910000  34.7009408  84.9909408  56.3480000
  40.0009408  86.2329408  51.9690000  40.8279408  85.7619408  52.0740000
  40.2609408  87.1449408  51.8330000  43.1139408  89.2469408  48.1040000
  43.4209408  88.6579408  47.4150000  42.3449408  89.6749408  47.7280000
  34.1209408  73.6749408  73.7610000  34.0209408  74.4239408  74.3480000
  34.6659408  73.0579408  74.2490000  49.4019408  77.0039408  63.4620000
  49.3069408  76.1259408  63.8320000  48.6369408  77.1089408  62.8970000
  36.9639408  87.2739408  64.1330000  36.2589408  86.7169408  64.4630000
  36.9889408  88.0129408  64.7410000  51.1249408  61.1489408  81.7350000
  50.9649408  60.2999408  81.3230000  51.6349408  61.6379408  81.0890000
  36.7109408  78.7099408  81.4700000  36.3839408  79.3649408  82.0880000
  37.6529408  78.8729408  81.4250000  41.8849408  71.9679408  72.0810000
  41.2899408  71.2449408  72.2800000  42.7569408  71.5759408  72.1090000
  35.8789408  66.9689408  68.7010000  35.4139408  66.1719408  68.4480000
  35.9029408  67.4959408  67.9020000  45.1049408  77.8279408  75.6050000
  44.2939408  77.6459408  75.1300000  45.7899408  77.7719408  74.9380000
  30.6359408  74.0729408  68.5360000  29.8129408  74.3929408  68.1640000
  30.9089408  73.3719408  67.9450000  48.8559408  78.6129408  69.2840000
  48.4689408  78.1719408  70.0410000  48.1489408  79.1559408  68.9360000
  39.0639408  68.6819408  77.8260000  38.4579408  68.2489408  78.4280000
  39.3939408  67.9759408  77.2700000  41.2259408  71.3479408  65.7040000
  40.6419408  71.7979408  66.3140000  41.6789408  70.6969408  66.2400000
  47.4669408  75.2269408  77.9080000  47.9479408  75.1439408  78.7320000
  48.1319408  75.1079408  77.2300000  52.0799408  69.5039408  66.3360000
  51.9909408  69.7379408  65.4120000  52.7389408  70.1109408  66.6740000
  35.6149408  73.6859408  68.9500000  35.7649408  73.7169408  69.8950000
  34.7539408  74.0859408  68.8300000  59.3079408  78.9599408  75.2020000
  59.6479408  79.5329408  75.8900000  59.8979408  79.0979408  74.4610000
  42.9309408  85.5519408  74.1980000  43.8639408  85.3599408  74.1090000
  42.5239408  85.1209408  73.4470000  58.0369408  65.5629408  65.5490000
  57.0969408  65.6829408  65.4130000  58.2159408  64.6789408  65.2300000
  48.3629408  81.3589408  60.6810000  47.7089408  82.0489408  60.5670000
  48.2789408  80.8169408  59.8970000  40.6849408  75.9839408  66.6650000
  41.1339408  76.8249408  66.7490000  39.8769408  76.0929408  67.1670000
  58.7999408  69.9389408  75.7730000  57.8609408  69.9999408  75.5990000
  58.8569408  69.5959408  76.6650000  32.3889408  80.7699408  63.8460000
  33.1819408  81.3059408  63.8470000  32.6729408  79.9199408  64.1820000
  47.9779408  74.4559408  70.6650000  47.2519408  74.3639408  70.0480000
  47.7039408  73.9559408  71.4340000  43.5299408  74.6779408  60.5350000
  42.9009408  73.9769408  60.7060000  43.0779408  75.2629408  59.9270000
  46.9329408  82.0279408  73.3670000  47.2779408  82.9039408  73.1980000
  47.6629408  81.4399408  73.1730000  41.7599408  83.1179408  68.5430000
  41.6899408  83.8819408  67.9720000  42.0759408  82.4179408  67.9710000
  44.5309408  86.0489408  61.8910000  45.1549408  86.0429408  61.1650000
  44.9719408  85.5639408  62.5890000  31.5889408  67.8679408  65.1380000
  31.9129408  67.0799408  64.7030000  32.3749408  68.2939408  65.4810000
  34.3779408  61.6949408  76.6380000  33.4469408  61.8319408  76.4640000
  34.7679408  61.5709408  75.7730000  41.0189408  62.1809408  78.1460000
  40.7569408  63.1019408  78.1390000  41.6919408  62.1279408  78.8240000
  45.1549408  60.6799408  68.8720000  44.7649408  61.4279408  68.4200000
  45.0899408  59.9599408  68.2450000  45.4189408  74.0349408  73.0950000
  44.8099408  73.9809408  73.8320000  44.8679408  74.2559408  72.3440000
  36.8749408  86.9259408  69.7580000  37.0919408  87.8089408  70.0560000
  37.0169408  86.9499408  68.8120000  58.5349408  75.5709408  67.6430000
  58.4489408  76.1489408  66.8850000  58.1879408  76.0809408  68.3750000
  38.3539408  66.3839408  63.5020000  39.0179408  66.9059408  63.0520000
  37.9879408  66.9769408  64.1590000  37.7939408  73.7699408  67.0920000
  37.1589408  73.5089408  67.7590000  38.3649408  73.0079408  66.9930000
  39.0859408  62.8069408  72.3010000  39.2659408  63.2629408  71.4790000
  39.7729408  63.1059408  72.8980000  45.8509408  73.9929408  69.0110000
  45.1649408  74.5659408  68.6690000  45.4019408  73.1709408  69.2080000
  37.6489408  77.3009408  72.5020000  37.1329408  77.8939408  73.0490000
  37.6139408  76.4609408  72.9600000  52.4549408  63.6049408  62.6640000
  51.6819408  63.5749408  62.1000000  52.7979408  64.4919408  62.5530000
  51.2289408  80.5009408  74.9470000  50.8759408  81.0379408  75.6570000
  51.9479408  81.0209408  74.5870000  41.1919408  86.2969408  61.5580000
  41.2509408  87.2469408  61.6600000  41.6389408  85.9449408  62.3270000
  34.6869408  63.6109408  72.3470000  33.8339408  63.9499408  72.0730000
  35.2309408  64.3909408  72.4540000  41.3659408  80.8169408  72.9800000
  41.3449408  81.5859408  72.4090000  42.2869408  80.5579408  72.9990000
  45.5709408  64.5019408  83.2080000  46.1229408  65.1429408  82.7600000
  45.2669408  63.9189408  82.5130000  44.5329408  79.5259408  67.8070000
  44.0209408  78.9609408  68.3850000  43.9069408  80.1799408  67.4950000
  34.9169408  74.0799408  66.0540000  35.2429408  73.2809408  66.4690000
  34.3959408  74.5079408  66.7330000  41.9419408  64.9309408  78.4310000
  42.8109408  65.3169408  78.3240000  41.7659408  64.9919408  79.3700000
  32.9999408  83.7209408  64.9930000  32.5599408  83.1309408  65.6050000
  33.7909408  83.2499408  64.7310000  39.3909408  65.9979408  73.5600000
  38.4679408  65.8209408  73.7410000  39.5449408  65.6099408  72.6990000
  36.4589408  79.0469408  74.2110000  35.7969408  78.9559408  74.8960000
  37.0899408  79.6709408  74.5690000  42.7269408  64.7419408  73.0350000
  43.5559408  64.2759408  72.9230000  42.3699408  64.4009408  73.8560000
  40.9189408  75.5149408  71.9010000  40.0709408  75.1079408  71.7250000
  40.7289408  76.4519408  71.9560000  41.2779408  68.6519408  69.3500000
  41.3409408  67.9429408  69.9910000  40.6729408  69.2789408  69.7440000
  37.3769408  88.8119408  61.6800000  36.6809408  88.2869408  61.2850000
  37.2869408  88.6599408  62.6210000  45.6899408  78.6069408  64.5490000
  45.8669408  78.6029408  63.6090000  46.2479408  77.9129408  64.9010000
  36.0069408  60.8799408  64.4630000  36.8559408  60.4709408  64.2940000
  36.1609408  61.8149408  64.3310000  39.4119408  68.7209408  66.5640000
  39.9009408  68.4549408  67.3430000  40.0189408  69.2819408  66.0810000
  40.9679408  78.3959408  75.9660000  41.6029408  77.8829408  75.4660000
  40.1389408  77.9329408  75.8490000  39.0729408  70.0809408  69.9790000
  39.3089408  70.3209408  70.8750000  38.1399408  69.8699408  70.0250000
  38.6629408  83.0849408  65.7270000  39.1639408  82.7029408  66.4480000
  39.3049408  83.2099408  65.0280000  42.1909408  63.0269408  66.6490000
  42.5829408  63.5069408  67.3790000  42.8259408  62.3399408  66.4440000
  32.7639408  70.3209408  75.9390000  32.1979408  70.7929408  75.3280000
  32.1579408  69.8679408  76.5260000  33.7929408  65.9289408  78.5460000
  34.5359408  65.3939408  78.2680000  33.0419408  65.5539408  78.0850000
  37.2649408  65.4869408  70.7700000  36.6499408  66.0649408  70.3180000
  37.6409408  64.9459408  70.0760000  34.4899408  64.3149408  68.6110000
  33.8189408  63.6769408  68.8510000  34.7519408  64.0669408  67.7250000
  48.2059408  71.1969408  71.0920000  48.7899408  71.1579408  70.3350000
  47.3289408  71.0939408  70.7250000  42.6159408  62.7419408  62.6460000
  42.2479408  63.1119408  61.8440000  43.2749408  63.3789408  62.9240000
  33.9959408  70.0319408  79.2360000  34.7059408  69.4889408  78.8920000
  34.1359408  70.8909408  78.8370000  43.6049408  69.6929408  63.1680000
  44.0819408  68.9459408  63.5280000  44.2209408  70.4239408  63.2310000
  40.6809408  71.2849408  60.4750000  40.9629408  71.9649408  59.8630000
  40.5939408  71.7389408  61.3140000  45.6389408  66.6119408  68.9870000
  45.6199408  66.6119408  69.9440000  46.5409408  66.8459408  68.7660000
  46.1629408  80.3279408  69.8410000  45.8969408  80.1039408  68.9500000
  45.7949408  79.6309408  70.3840000  48.8369408  79.6889408  73.6890000
  49.6529408  79.8079408  74.1740000  49.0429408  79.9709408  72.7980000
  37.3569408  74.9479408  74.1060000  36.7409408  74.6609408  74.7800000
  37.7119408  74.1349408  73.7450000  52.1589408  71.9809408  68.6940000
  52.2029408  72.9319408  68.6020000  52.8179408  71.6489408  68.0840000
  31.5759408  61.8369408  72.3790000  31.6699408  61.3979408  71.5340000
  31.7809408  62.7539408  72.1980000  39.7979408  73.5629408  80.7020000
  39.9119408  72.6129408  80.6900000  40.2249408  73.8659408  79.9000000
  42.6309408  73.1459408  74.3340000  42.2629408  73.3379408  73.4710000
  42.9819408  72.2589408  74.2530000  40.1429408  68.5439408  62.9460000
  40.7999408  68.6049408  62.2530000  40.5939408  68.8529408  63.7320000
  34.7069408  75.4199408  83.1280000  34.5639408  75.8999408  82.3120000
  34.9709408  76.0909408  83.7570000  32.9149408  76.4549408  74.3630000
  33.5279408  77.1049408  74.7050000  32.2449408  76.3749408  75.0420000
  39.9729408  61.6209408  69.1660000  40.8859408  61.7839408  68.9290000
  40.0159408  61.2549408  70.0490000  42.5159408  69.3919408  67.0440000
  42.9239408  68.9559408  66.2950000  42.6179408  68.7729408  67.7670000
  50.6819408  74.5549408  70.8580000  50.4699408  74.9719408  71.6930000
  49.8309408  74.3559408  70.4670000  35.0659408  72.1979408  78.1450000
  35.8319408  71.7159408  77.8330000  34.6889408  72.5859408  77.3550000
  34.4699408  66.9909408  81.0950000  34.3759408  66.7169408  80.1820000
  34.4599408  67.9469408  81.0610000  46.7989408  68.8369408  81.9130000
  46.1259408  68.2629408  81.5470000  47.3839408  68.2479408  82.3890000
  47.3339408  61.3149408  77.3720000  47.1459408  62.1649408  77.7700000
  46.5919408  60.7639408  77.6200000  34.3569408  84.6489408  73.1330000
  35.1819408  85.0809408  72.9100000  33.8739408  85.2999408  73.6410000
  36.0859408  74.8579408  71.4430000  35.4669408  75.3769408  70.9300000
  35.9959408  75.1919408  72.3360000  43.4409408  76.1729408  68.5040000
  43.3789408  75.9409408  67.5780000  42.7799408  76.8539408  68.6260000
  38.5019408  64.1379408  68.6120000  38.8629408  64.4539408  67.7840000
  38.9809408  63.3279408  68.7890000  39.2219408  89.9579408  79.5540000
  39.1209408  89.3189408  78.8490000  39.7729408  90.6449408  79.1780000
  35.8979408  86.1729408  75.7840000  34.9769408  86.4009408  75.6590000
  36.2559408  86.1269408  74.8980000  34.1719408  68.0399408  66.5580000
  33.5999408  68.3309408  67.2680000  34.3229408  68.8259408  66.0330000
  50.9309408  68.1219408  77.8530000  50.4899408  68.4399408  78.6410000
  51.2959408  68.9089408  77.4480000  33.5469408  89.1949408  74.3880000
  33.4529408  88.7309408  73.5560000  34.0779408  89.9629408  74.1760000
  37.6459408  75.5889408  60.5610000  38.1379408  74.9059408  61.0160000
  38.1499408  76.3889408  60.7110000  39.7719408  62.8839408  65.6410000
  40.6209408  62.7349408  66.0590000  39.7999408  62.3549408  64.8440000
  39.0259408  76.3989408  75.6100000  38.7289408  76.0099408  76.4320000
  38.4029408  76.0809408  74.9560000  54.9449408  70.7089408  82.4340000
  54.4059408  70.1399408  82.9830000  54.3479408  71.3989408  82.1430000
  42.9919408  66.0789408  80.9050000  43.2669408  66.9929408  80.8340000
  43.4549408  65.7489408  81.6750000  49.7759408  77.0209408  66.7930000
  49.6259408  77.7959408  66.2530000  49.1299408  77.0889408  67.4960000
  54.9269408  75.3199408  69.5870000  55.3159408  74.5869408  70.0650000
  55.3279408  75.2809408  68.7190000  35.7419408  71.5499408  72.2860000
  35.5099408  71.7689408  73.1890000  36.5849408  71.9799408  72.1450000
  59.0709408  62.3679408  73.5800000  59.1899408  62.7229408  74.4610000
  59.9599408  62.2269408  73.2550000  45.3469408  67.8619408  73.5700000
  45.5059408  67.1419408  72.9600000  46.2199408  68.1279408  73.8590000
  43.9419408  87.7469408  71.2050000  43.6119408  87.6369408  72.0970000
  43.2129408  88.1429408  70.7270000  32.4759408  73.4329408  71.5170000
  32.9669408  73.3179408  72.3310000  32.3929408  74.3819408  71.4200000
  34.0809408  70.9719408  70.1910000  33.3579408  71.5829408  70.3280000
  34.6869408  71.1519408  70.9110000  32.4699408  62.2689408  69.4860000
  31.9209408  63.0069408  69.2190000  31.8819408  61.5139408  69.4670000
  33.0199408  76.0899408  71.5960000  32.9749408  76.1599408  72.5500000
  33.1089408  76.9939408  71.2930000  42.5739408  74.1909408  76.7410000
  42.6879408  73.7449408  75.9010000  43.3929408  74.6689408  76.8720000
  39.4949408  75.9309408  63.8740000  39.7659408  75.7989408  64.7830000
  39.9059408  76.7569408  63.6190000  38.0449408  78.2839408  77.2700000
  37.8129408  77.5769408  77.8720000  38.2419408  77.8409408  76.4450000
  38.0199408  61.0509408  74.0630000  38.1869408  61.8039408  73.4960000
  38.5849408  61.1939408  74.8240000  42.3299408  83.4389408  64.0320000
  41.5709408  82.9229408  63.7610000  43.0749408  83.0059408  63.6160000
  33.8559408  88.2669408  66.1100000  33.5329408  89.1219408  65.8250000
  34.7399408  88.4389408  66.4320000  32.1229408  82.1309408  77.8600000
  32.8419408  81.8089408  77.3180000  32.3069408  83.0629408  77.9750000
  48.9909408  68.3469408  65.9690000  49.9089408  68.3779408  66.2400000
  48.8449408  67.4349408  65.7200000  35.8029408  76.0779408  64.3120000
  36.5949408  75.6419408  63.9980000  35.6179408  75.6609408  65.1540000
  45.6349408  71.6509408  63.7230000  46.4549408  71.1739408  63.8460000
  45.4639408  72.0589408  64.5730000  43.6209408  75.0579408  71.2560000
  42.8359408  75.3699408  71.7060000  43.5009408  75.3309408  70.3470000
  36.7349408  70.4089408  76.9120000  37.6709408  70.2119408  76.8740000
  36.3309408  69.5979408  77.2210000  39.1019408  79.7299408  82.1000000
  39.8669408  79.3959408  81.6300000  39.3469408  80.6199408  82.3550000
  38.8879408  80.4159408  61.5990000  38.2829408  79.7779408  61.9770000
  38.7719408  81.2019408  62.1330000  43.4439408  60.5639408  65.1250000
  44.2609408  60.5429408  65.6220000  43.7179408  60.5099408  64.2090000
  38.1309408  77.3219408  69.6840000  38.1119408  78.2399408  69.4110000
  37.9969408  77.3509408  70.6310000  41.8609408  68.8709408  60.8180000
  41.4729408  69.7019408  60.5460000  42.8049408  69.0259408  60.7920000
  44.0549408  80.7059408  79.8650000  43.1819408  80.5199408  80.2090000
  44.1139408  80.1809408  79.0660000  38.7819408  74.8269408  70.5120000
  37.8989408  74.6719408  70.8490000  38.7299408  75.6859408  70.0920000
  55.7759408  75.5769408  75.5950000  56.5949408  75.4519408  75.1160000
  55.8309408  74.9639408  76.3280000  44.7319408  65.0299408  66.7360000
  45.2879408  64.2539408  66.6670000  45.2679408  65.6689408  67.2060000
  44.8019408  75.4929408  76.8610000  44.9129408  76.3009408  76.3600000
  45.6729408  75.3059408  77.2110000  57.4529408  72.4809408  72.6510000
  56.9679408  71.6609408  72.7380000  58.3159408  72.2169408  72.3320000
  49.8039408  70.9529408  68.8190000  50.7069408  71.2619408  68.7410000
  49.2889408  71.5889408  68.3220000  43.6759408  72.0399408  68.3110000
  42.9579408  72.4469408  68.7970000  43.3909408  71.1369408  68.1740000
  34.4319408  59.9699408  69.1520000  34.9539408  60.3289408  69.8690000
  33.7079408  60.5879408  69.0490000  33.1979408  75.2869408  67.9950000
  32.5999408  75.4139408  67.2590000  32.7259408  74.7069408  68.5910000
  43.4919408  70.2479408  75.4210000  44.1179408  70.9619408  75.5410000
  44.0109408  69.5349408  75.0460000  58.8019408  66.7519408  75.1170000
  58.5949408  66.3399408  74.2790000  57.9779408  67.1509408  75.3980000
  36.3509408  72.5299408  80.8020000  35.7639408  72.6359408  80.0530000
  36.8079408  73.3679408  80.8690000  32.1939408  62.4329408  75.0200000
  31.9859408  62.0149408  74.1840000  32.7589408  63.1699408  74.7850000
  50.3539408  61.1919408  74.3940000  51.2449408  61.0649408  74.0680000
  50.3279408  62.1089408  74.6690000  42.9529408  78.1909408  64.7110000
  42.8259408  78.4779408  65.6150000  43.8859408  78.3269408  64.5450000
  41.2079408  73.2309408  69.6310000  41.4929408  73.1859408  70.5430000
  40.4689408  73.8389408  69.6400000  35.2889408  76.5969408  61.2440000
  36.1979408  76.4009408  61.4730000  35.0949408  76.0109408  60.5130000
  35.9609408  61.2959408  70.8390000  36.7089408  61.8909408  70.8830000
  35.2019408  61.8499408  71.0230000  44.0369408  69.3019408  70.0320000
  43.0859408  69.2279408  69.9500000  44.3769408  68.5189408  69.5980000
  43.8409408  75.9929408  79.9150000  43.3829408  75.6059408  79.1690000
  44.1529408  76.8389408  79.5910000  47.9259408  73.8949408  74.1400000
  46.9729408  73.9149408  74.2200000  48.2449408  74.1439408  75.0080000
  47.9639408  64.7779408  60.3340000  47.0519408  65.0459408  60.4500000
  48.1979408  64.3589408  61.1630000  36.0819408  71.7559408  63.1260000
  35.2619408  72.2489408  63.0890000  36.7199408  72.3779408  63.4750000
  50.7849408  71.9599408  77.6010000  51.3309408  71.2469408  77.2700000
  50.9109408  72.6709408  76.9720000  46.0959408  70.7469408  69.5820000
  45.3069408  70.3579408  69.9590000  46.3329408  70.1619408  68.8630000
  41.8799408  71.9409408  63.1400000  41.5959408  71.9629408  64.0530000
  42.2839408  71.0799408  63.0340000  40.6029408  78.1769408  72.3180000
  39.6709408  78.0139408  72.4610000  40.6839408  79.1309408  72.3230000
  46.8019408  80.5669408  75.9690000  47.5409408  79.9729408  75.8380000
  46.7199408  81.0359408  75.1380000  36.3819408  63.8779408  66.2780000
  36.8239408  64.1609408  67.0780000  36.7769408  64.4079408  65.5850000
  47.8219408  70.6709408  84.7140000  47.0509408  70.2079408  84.3860000
  48.5589408  70.2549408  84.2680000  50.9929408  76.8169408  61.4860000
  51.3499408  77.6909408  61.3270000  50.4049408  76.9299408  62.2320000
  57.1529408  73.0869408  76.5300000  57.5009408  72.5009408  77.2020000
  56.4709408  72.5749408  76.0950000  58.4819408  70.9349408  69.6410000
  58.8959408  71.1749408  70.4700000  58.9019408  71.4979408  68.9910000
  44.8989408  86.5689408  68.8670000  44.8359408  86.8249408  69.7880000
  44.8469408  85.6129408  68.8800000  36.4319408  69.2409408  69.6680000
  35.6539408  69.7959408  69.6110000  36.1929408  68.4429408  69.1960000
  47.9739408  70.1959408  64.3400000  48.5639408  70.9399408  64.4650000
  48.2259408  69.5729408  65.0210000  44.5639408  71.3319408  72.5050000
  45.3129408  71.9219408  72.4160000  44.8419408  70.5249408  72.0710000
  40.5329408  64.8369408  71.0850000  40.4469408  65.5079408  70.4070000
  41.3799408  65.0149408  71.4930000  38.3729408  83.4639408  73.1860000
  39.1639408  83.9339408  72.9220000  37.6539408  83.9979408  72.8490000
  38.0019408  73.8009408  64.2870000  38.6839408  74.4149408  64.0160000
  37.9259408  73.9279408  65.2330000  38.5919408  80.0079408  71.6570000
  37.6919408  79.6829408  71.6220000  38.5009408  80.9549408  71.7650000
  38.5059408  89.5499408  64.7200000  39.2599408  89.8159408  64.1930000
  38.6619408  89.9459408  65.5770000  34.0379408  87.2559408  69.9530000
  34.9729408  87.0479408  69.9550000  33.9999408  88.1869408  69.7350000
  47.8569408  65.7969408  66.3200000  48.7739408  65.6119408  66.1180000
  47.3679408  65.4069408  65.5960000  54.8209408  67.4299408  68.6100000
  54.9309408  66.7309408  67.9650000  55.4989408  68.0679408  68.3900000
  39.6499408  71.8419408  67.8760000  40.4039408  72.2779408  68.2730000
  39.2779408  71.3139408  68.5820000  47.8409408  71.3329408  81.0730000
  47.5779408  70.4969408  81.4570000  47.0239408  71.8229408  80.9800000
  46.4069408  63.6289408  79.0480000  47.1099408  64.2789408  79.0450000
  46.1969408  63.5069408  79.9740000  41.6449408  68.1269408  83.6070000
  41.9199408  67.4939408  84.2710000  41.9309408  68.9729408  83.9510000
  48.3389408  68.6359408  77.0160000  48.1949408  69.4509408  77.4970000
  49.2549408  68.4159408  77.1850000  37.8239408  69.7049408  61.9020000
  38.6989408  69.3949408  62.1340000  37.3699408  69.7939408  62.7400000
  43.4879408  68.3599408  77.7820000  42.5719408  68.4729408  78.0380000
  43.7179408  69.1799408  77.3450000  57.1329408  73.4899408  66.5760000
  56.2129408  73.7239408  66.4540000  57.5309408  74.2739408  66.9540000
  35.3919408  69.8369408  81.5440000  34.4879408  70.0839408  81.7380000
  35.8819408  70.6569408  81.5990000  45.6989408  73.6459408  81.5090000
  44.9289408  74.2119408  81.4530000  45.7449408  73.3939408  82.4310000
  35.3759408  65.8509408  64.5400000  35.9379408  66.5929408  64.3170000
  35.1269408  66.0039408  65.4520000  51.4999408  80.8909408  81.6630000
  51.5299408  81.8449408  81.5890000  51.2169408  80.5929408  80.7990000
  46.1989408  72.7839408  84.3270000  46.9519408  72.3809408  84.7590000
  45.5079408  72.1229408  84.3830000  50.3079408  72.6819408  81.5200000
  49.5659408  72.7069408  82.1230000  50.0339408  73.2229408  80.7790000
  53.5869408  71.2759408  63.3410000  52.6949408  71.6219408  63.3230000
  54.1119408  71.9439408  62.9000000  37.8799408  86.0279408  83.7110000
  38.5289408  86.2299408  83.0370000  37.0729408  85.8609408  83.2240000
  48.4169408  74.7709408  80.7260000  48.8399408  75.1919408  81.4750000
  47.5249408  74.5919408  81.0240000  44.9759408  75.1649408  83.9550000
  45.6309408  75.7189408  83.5300000  45.4869408  74.4979408  84.4130000
  50.1269408  77.4139408  77.2570000  50.8569408  78.0169408  77.1180000
  50.2649408  77.0689408  78.1390000  47.7229408  69.0149408  74.5310000
  48.2079408  69.8399408  74.5330000  47.7629408  68.7109408  75.4380000
  47.0589408  64.2909408  63.6940000  47.3229408  63.4279408  64.0130000
  46.3329408  64.1129408  63.0950000  42.1429408  73.0499408  83.4810000
  42.7959408  73.1569408  82.7890000  41.8279408  73.9369408  83.6530000
  39.2999408  64.7489408  76.6790000  38.4779408  64.7659408  76.1890000
  39.0309408  64.7099408  77.5970000  40.2849408  69.8869408  72.5980000
  40.8409408  69.1149408  72.4900000  40.1829408  69.9779408  73.5460000
  58.8309408  67.2719408  62.2880000  58.8699408  66.9779408  63.1980000
  59.5399408  66.7969408  61.8530000  47.8369408  65.8009408  78.3520000
  48.7399408  65.6199408  78.0890000  47.7859408  66.7559408  78.3950000
  42.3099408  77.8379408  78.4750000  41.5999408  77.7869408  77.8350000
  42.9599408  78.4099408  78.0670000  51.5769408  70.0929408  73.5580000
  50.8019408  70.5149408  73.9290000  51.6999408  70.5189408  72.7100000
  35.6739408  83.6199408  60.0820000  36.0949408  83.8689408  60.9050000
  36.3839408  83.2649408  59.5480000  33.0279408  78.2679408  61.4330000
  33.1569408  79.2159408  61.4620000  33.8729408  77.9189408  61.1520000
  35.6639408  68.1749408  78.2520000  36.2629408  67.8789408  78.9380000
  35.1889408  67.3859408  77.9920000  35.9109408  66.2639408  83.1760000
  35.8639408  65.3079408  83.1610000  35.2579408  66.5469408  82.5370000
  33.5549408  72.7819408  63.2750000  32.7219408  72.4139408  63.5720000
  33.4619408  73.7249408  63.4110000  50.1159408  63.8369408  75.0270000
  50.6079408  64.5009408  74.5440000  49.2639408  63.8059408  74.5920000
  39.1499408  89.6889408  82.5040000  39.9349408  90.2339408  82.5540000
  39.1679408  89.3219408  81.6200000  32.6359408  69.1879408  72.6550000
  32.1249408  69.8089408  73.1730000  31.9839408  68.6069408  72.2650000
  40.1199408  61.7629408  63.4120000  39.5699408  61.8339408  62.6310000
  40.9739408  62.0939408  63.1340000  54.7679408  66.0699408  77.1460000
  53.8289408  66.0299408  76.9640000  55.1819408  65.7409408  76.3480000
  35.1569408  71.4689408  75.1180000  34.3929408  71.0489408  75.5120000
  35.9069408  71.0229408  75.5130000  46.3049408  77.8459408  78.6500000
  46.4699408  78.5339408  78.0040000  46.6669408  77.0539408  78.2540000
  41.4229408  61.4139408  82.3640000  41.7979408  61.2949408  83.2370000
  42.1729408  61.6199408  81.8060000  34.3739408  62.0349408  82.5920000
  35.0449408  62.5869408  82.9950000  33.7539408  62.6539408  82.2080000
  37.8019408  76.5439408  67.0640000  37.6149408  75.6139408  67.1890000
  37.8329408  76.9049408  67.9500000  42.7309408  72.2139408  78.9580000
  42.2289408  71.4239408  78.7610000  42.6519408  72.7509408  78.1690000
  37.4109408  68.2469408  82.5390000  37.0039408  67.3889408  82.6570000
  36.8979408  68.6629408  81.8460000  48.8269408  63.5309408  82.3500000
  48.8589408  62.6169408  82.6340000  49.3369408  63.5479408  81.5400000
  43.0339408  74.4019408  63.2410000  43.4299408  74.6769408  62.4150000
  42.6019408  73.5729408  63.0360000  44.6579408  61.6439408  84.3280000
  45.2989408  61.5509408  85.0330000  43.8909408  62.0299408  84.7510000
  39.2199408  70.8319408  80.8010000  38.2959408  70.9889408  80.6070000
  39.2279408  70.5439408  81.7140000  38.1889408  77.1529408  83.5900000
  39.0689408  77.0679408  83.9560000  37.9749408  78.0809408  83.6910000
  37.2109408  68.0059408  65.3860000  36.6419408  68.7579408  65.5510000
  37.9689408  68.1489408  65.9520000  60.1159408  68.1649408  71.4220000
  60.1929408  67.2509408  71.1470000  59.2939408  68.4639408  71.0340000
  51.0649408  69.6399408  62.0140000  51.5329408  69.0169408  62.5690000
  51.5449408  69.6309408  61.1850000  34.8949408  78.8529408  66.4910000
  35.2919408  79.6979408  66.7040000  35.4089408  78.5259408  65.7530000
  30.8779408  89.1329408  61.2170000  31.1779408  89.6449408  60.4660000
  31.0379408  88.2229408  60.9670000  36.9089408  64.5699408  75.4710000
  36.4269408  65.1219408  74.8560000  36.2819408  64.3849408  76.1700000
  46.1519408  76.8349408  66.9130000  45.4469408  76.5409408  66.3350000
  45.7099408  77.0769408  67.7270000  45.4429408  60.1609408  73.2290000
  46.1079408  59.5109408  73.4580000  45.5879408  60.8799408  73.8430000
  54.0269408  79.3799408  81.4100000  54.2849408  78.4959408  81.6720000
  53.1719408  79.5119408  81.8210000  44.3959408  78.1949408  70.7400000
  44.3709408  78.1429408  71.6950000  44.2869408  77.2889408  70.4480000
  34.5679408  72.7609408  83.3450000  34.5269408  73.7069408  83.4870000
  34.8839408  72.6679408  82.4460000  51.5419408  62.2789408  84.3060000
  51.1949408  62.1159408  83.4290000  51.4429408  61.4439408  84.7630000
  44.6329408  83.1429408  70.1660000  44.8209408  83.6079408  69.3500000
  44.7559408  82.2189408  69.9490000  45.3159408  72.0549408  76.3340000
  44.9349408  72.8129408  76.7780000  46.1729408  71.9419408  76.7450000
  52.2929408  77.8109408  83.8080000  52.1829408  77.0259408  84.3450000
  52.7159408  78.4419408  84.3890000  39.7159408  77.2639408  60.6440000
  40.4809408  76.8889408  60.2080000  40.0779408  77.7609408  61.3780000
  37.2109408  71.8149408  84.3940000  36.3699408  72.1359408  84.0660000
  37.5599408  72.5409408  84.9100000  30.1669408  68.8079408  80.3710000
  29.8829408  68.0049408  80.8070000  29.9809408  69.5029408  81.0020000
  41.3649408  69.9299408  78.7550000  40.7509408  69.2719408  78.4300000
  41.2129408  69.9549408  79.7000000  44.3869408  80.9349408  61.0510000
  43.5169408  81.2199408  60.7720000  44.8489408  80.7409408  60.2360000
  40.7769408  69.9669408  75.3550000  41.7099408  70.1599408  75.2610000
  40.7469408  69.1889408  75.9110000  49.8279408  75.7489408  73.0870000
  50.5869408  75.7009408  73.6680000  49.2939408  74.9909408  73.3260000
  58.4329408  61.3169408  77.7720000  58.3759408  60.3929408  78.0160000
  58.3789408  61.7879408  78.6040000  46.9629408  76.6139408  82.6300000
  46.8069408  77.5369408  82.8310000  47.8629408  76.5879408  82.3060000
  56.9299408  71.9079408  61.8610000  56.9209408  72.4829408  62.6270000
  57.6339408  71.2839408  62.0360000  45.8339408  63.3109408  61.4930000
  46.3929408  62.5349408  61.4550000  45.4889408  63.4019408  60.6050000
  30.8749408  63.4179408  83.9600000  30.5559408  62.5409408  83.7490000
  31.6379408  63.5389408  83.3940000  43.8929408  79.7199408  77.2500000
  43.8199408  80.5249408  76.7370000  44.7049408  79.3139408  76.9450000
  40.5189408  67.1779408  75.9270000  40.5439408  66.3239408  76.3590000
  40.1409408  66.9999408  75.0660000  45.9109408  87.6449408  80.9300000
  45.4609408  86.9469408  80.4540000  45.2979408  87.8989408  81.6190000
  47.6369408  90.0739408  82.6510000  47.4279408  89.3739408  82.0330000
  47.3079408  89.7569408  83.4920000  37.9469408  67.0969408  79.7360000
  37.9239408  66.1409408  79.7090000  38.7869408  67.3059408  80.1460000
  46.8989408  89.9439408  65.6780000  46.7499408  89.2089408  66.2740000
  46.6159408  89.6199408  64.8230000  39.8299408  87.2289408  65.4010000
  38.9329408  87.4469408  65.1470000  40.3679408  87.5429408  64.6740000
  31.1219408  66.0539408  69.6410000  30.6489408  66.3209408  68.8530000
  31.9209408  66.5809408  69.6320000  41.1519408  82.9069408  80.7830000
  41.1849408  81.9589408  80.9060000  40.5209408  83.0349408  80.0740000
  41.0869408  85.7069408  67.3250000  40.8939408  86.1889408  68.1280000
  40.7599408  86.2699408  66.6230000  32.6749408  78.7829408  70.9760000
  33.1839408  79.3299408  71.5740000  33.0549408  78.9529408  70.1140000
  43.9669408  75.5319408  65.7910000  44.1179408  74.5939408  65.6770000
  43.3829408  75.7699408  65.0710000  32.1679408  64.6769408  72.0900000
  31.6919408  65.0179408  71.3330000  31.8439408  65.1909408  72.8290000
  39.7219408  88.0699408  68.6160000  39.4219408  88.0619408  67.7080000
  39.1469408  88.6979408  69.0530000  41.7279408  80.3879408  81.2710000
  41.6209408  79.5149408  80.8940000  42.3419408  80.2629408  81.9960000
  58.0529408  85.8899408  72.2050000  58.2489408  86.7309408  72.6180000
  57.0989408  85.8779408  72.1250000  43.8599408  66.7389408  62.4700000
  43.0679408  67.2019408  62.1940000  43.5509408  66.0939408  63.1060000
  34.9999408  89.5199408  78.2440000  35.1339408  89.6689408  79.1800000
  34.6149408  90.3359408  77.9240000  40.5059408  79.8669408  66.1100000
  39.8559408  79.5139408  65.5030000  39.9949408  80.3779408  66.7380000
  43.0909408  65.1259408  64.6640000  43.6829408  65.1169408  65.4160000
  42.3979408  64.5079408  64.8970000  33.3269408  84.6049408  79.3680000
  34.2059408  84.2289408  79.3230000  33.4169408  85.4729408  78.9750000
  30.0379408  81.4779408  64.6990000  30.9309408  81.1549408  64.5830000
  29.4899408  80.8369408  64.2450000  45.7609408  85.8819408  64.7460000
  45.6409408  85.0999408  64.2060000  44.9199408  85.9989408  65.1890000
  44.2179408  80.3289408  73.1910000  44.4609408  81.2159408  72.9250000
  45.0449408  79.9189408  73.4450000  47.6079408  81.4719408  81.4500000
  47.1129408  82.1989408  81.8280000  47.2049408  80.6879408  81.8230000
  42.8429408  84.9729408  81.9030000  42.4879408  84.2539408  81.3800000
  43.3269408  85.5089408  81.2750000  34.6779408  82.4899408  76.5850000
  35.2769408  83.2359408  76.6160000  35.2109408  81.7439408  76.8610000
  35.7979408  81.3969408  66.7650000  36.4539408  81.7799408  67.3470000
  34.9819408  81.4349408  67.2640000  47.4849408  87.6719408  67.7400000
  46.6389408  87.2889408  67.9700000  47.8719408  87.0489408  67.1250000
  32.3099408  78.7869408  65.5240000  31.6629408  78.6259408  66.2120000
  33.1549408  78.6519408  65.9530000  44.3059408  88.7819408  67.3720000
  44.7559408  88.1469408  67.9280000  43.9669408  88.2639408  66.6420000
  54.3189408  84.7159408  74.1060000  54.8969408  83.9829408  73.8980000
  54.5489408  85.3919408  73.4680000  36.4959408  78.9039408  62.3800000
  35.9039408  79.5189408  61.9470000  35.9969408  78.0889408  62.4350000
  46.4369408  79.0669408  81.2430000  46.5039408  78.3559408  80.6060000
  45.6939408  79.5899408  80.9420000  37.2649408  83.0889408  63.3920000
  37.5729408  83.8519408  62.9040000  37.6459408  83.1919408  64.2640000
  40.3759408  83.4779408  77.1180000  39.6279408  83.2069408  77.6500000
  40.5139408  82.7509408  76.5100000  45.4449408  85.1009408  74.0140000
  46.2459408  85.2109408  73.5020000  45.0809408  84.2679408  73.7140000
  39.1669408  65.4379408  65.7480000  38.8509408  65.6709408  64.8750000
  39.4189408  64.5179408  65.6750000  34.2729408  80.1469408  72.5690000
  33.8439408  80.9559408  72.8460000  35.0339408  80.0699408  73.1450000
  33.2469408  75.4839408  63.2100000  33.6359408  76.1419408  62.6340000
  33.7999408  75.4919408  63.9910000  34.1789408  77.7809408  68.9290000
  34.2309408  78.1619408  68.0530000  33.5919408  77.0319408  68.8310000
  41.1639408  89.3629408  74.0990000  41.9599408  89.0219408  74.5070000
  40.8289408  90.0059408  74.7250000  41.2709408  89.4239408  60.7540000
  41.1439408  89.1009408  59.8620000  40.7259408  90.2099408  60.8040000
  40.1639408  74.3359408  77.9330000  39.7059408  73.4989408  77.8530000
  40.9369408  74.2409408  77.3770000  36.7049408  84.8669408  67.0240000
  37.3139408  84.3839408  66.4660000  36.0519408  85.2189408  66.4190000
  30.7809408  77.7779408  63.0700000  31.3749408  77.8329408  63.8190000
  31.3059408  78.0689408  62.3250000  36.9129408  86.0559408  73.0170000
  36.7609408  86.9919408  73.1450000  37.8609408  85.9539408  73.1010000
  39.9689408  85.5049408  71.5150000  40.0609408  86.2039408  72.1630000
  39.5309408  85.9229408  70.7730000  42.8559408  62.0519408  69.6080000
  43.6339408  61.5559408  69.8640000  42.6389408  62.5739408  70.3800000
  40.9059408  82.2719408  61.9450000  40.8709408  81.3879408  61.5790000
  40.4339408  82.8129408  61.3120000  30.6149408  74.7429408  62.4330000
  29.9859408  75.4539408  62.5520000  31.4659408  75.1429408  62.6100000
  45.8529408  83.8829408  67.9390000  45.9139408  83.7729408  66.9900000
  46.7569408  84.0099408  68.2250000  37.6779408  75.6369408  78.2270000
  37.3809408  75.6059408  79.1360000  38.4549408  75.0779408  78.2080000
  34.3649408  82.5619408  70.9050000  33.8259408  83.0119408  71.5560000
  35.0559408  83.1889408  70.6910000  41.6299408  83.2589408  71.2250000
  41.9139408  83.2529408  70.3110000  40.9499408  83.9319408  71.2610000
  33.3079408  82.3489408  74.1740000  33.6449408  83.1049408  73.6930000
  33.8179408  82.3319408  74.9840000  50.0859408  63.0319408  61.4180000
  50.4329408  62.3479408  60.8450000  49.2249408  62.7079408  61.6830000
  58.1769408  62.4219408  80.1510000  57.3749408  62.2089408  80.6290000
  58.4289408  63.2859408  80.4760000  49.2209408  88.9019408  69.3070000
  48.6819408  89.2899408  69.9960000  48.5979408  88.6619408  68.6210000
  30.7819408  76.6869408  75.9170000  30.1779408  76.2529408  76.5200000
  30.3069408  77.4619408  75.6180000  36.7389408  84.1779408  69.9850000
  36.8389408  85.0859408  70.2700000  36.8689408  84.2079408  69.0370000
  40.4329408  61.4439408  75.7220000  40.5989408  61.4719408  76.6650000
  40.7079408  62.3039408  75.4050000  33.3309408  79.3729408  78.2010000
  32.4419408  79.5659408  78.5000000  33.8949408  79.6769408  78.9110000
  56.3379408  68.5209408  74.7070000  55.9319408  69.3879408  74.7270000
  55.5999408  67.9109408  74.7000000  33.1059408  81.9459408  68.1800000
  33.4189408  82.7029408  68.6760000  32.1519408  82.0229408  68.2010000
  45.4369408  83.2539408  80.0090000  46.0059408  83.1119408  79.2530000
  45.0009408  82.4129408  80.1430000  37.0619408  81.4499408  69.2770000
  37.2629408  82.2119408  69.8210000  36.5489408  80.8769408  69.8470000
  42.0659408  88.8869408  69.7040000  41.2279408  88.5389408  69.3980000
  42.5209408  89.1529408  68.9050000  41.2699408  86.0949408  76.5260000
  41.8939408  86.0249408  75.8040000  41.2699408  85.2259408  76.9290000
  40.8659408  78.4719408  62.7640000  40.6719408  79.4039408  62.8690000
  41.5619408  78.2989408  63.3990000  43.6439408  60.4429408  61.8470000
  42.8629408  60.2199408  61.3410000  43.6489408  61.3999408  61.8730000
  33.1739408  60.5829408  64.5740000  34.1289408  60.6499408  64.5680000
  32.8779408  61.4079408  64.9580000  39.4209408  81.4549408  67.9740000
  38.8169408  81.4819408  68.7160000  40.2109408  81.8929408  68.2920000
  58.8549408  83.9129408  70.4620000  58.1329408  83.2899408  70.3720000
  58.5459408  84.5469408  71.1090000  39.8059408  75.8759408  81.7940000
  38.8959408  76.1509408  81.9020000  39.7489408  74.9669408  81.5000000
  37.9939408  81.3219408  74.6600000  38.8919408  81.3319408  74.9910000
  37.9779408  82.0019408  73.9870000  54.4759408  80.8279408  79.0240000
  55.3199408  81.0919408  78.6570000  54.7019408  80.2359408  79.7420000
  42.9509408  61.3049408  72.5350000  43.5739408  60.6049408  72.7320000
  42.1069408  60.9639408  72.8300000  43.2739408  86.0209408  65.5640000
  43.0779408  85.8549408  66.4860000  42.5129408  85.6839408  65.0920000
  43.9679408  83.1959408  72.7510000  43.0609408  83.1179408  72.4530000
  44.4749408  83.3119408  71.9480000  37.9659408  83.2009408  84.6000000
  38.6309408  82.7009408  84.1270000  37.9549408  84.0549408  84.1660000
  58.8189408  88.9629408  79.5480000  59.3499408  88.7979408  80.3270000
  57.9169408  88.8389408  79.8420000  37.1999408  62.1849408  79.7970000
  37.7519408  61.4189408  79.6400000  36.4489408  61.8439408  80.2840000
  46.6659408  72.2829408  61.1970000  46.1439408  73.0379408  60.9240000
  46.2319408  71.9649408  61.9890000  41.4439408  75.8639408  83.9440000
  42.0879408  76.3889408  83.4680000  40.7859408  75.6379408  83.2870000
  44.5009408  72.8519408  65.8720000  44.3729408  72.6739408  66.8040000
  43.6179408  72.8409408  65.5020000  40.8959408  79.7499408  69.9370000
  40.1039408  79.8069408  70.4710000  41.6099408  79.9329408  70.5480000
  49.0259408  74.6979408  65.6060000  49.1789408  75.5409408  66.0320000
  48.8219408  74.0999408  66.3250000  36.7689408  88.4729408  74.2330000
  37.3599408  89.2059408  74.4070000  35.9639408  88.6979408  74.6990000
  57.3529408  60.3099408  72.8330000  57.5099408  59.6729408  73.5300000
  57.9369408  61.0399408  73.0390000  42.1129408  78.3489408  67.7370000
  41.7449408  78.5769408  68.5910000  41.5649408  78.8179408  67.1070000
  54.6629408  79.5749408  72.4850000  54.9049408  78.8659408  73.0800000
  54.1909408  79.1409408  71.7740000  31.4539408  89.7109408  75.8930000
  31.4329408  90.6619408  76.0040000  32.2849408  89.5399408  75.4500000
  36.8329408  80.5419408  77.8900000  37.4509408  79.8449408  77.6710000
  36.2749408  80.1639408  78.5700000  55.2199408  74.8659408  61.3530000
  55.3179408  74.0859408  60.8060000  54.4369408  75.3009408  61.0120000
  38.3579408  64.1779408  61.8600000  38.4489408  64.8209408  62.5630000
  37.5369408  63.7239408  62.0540000  41.2019408  88.7629408  63.4690000
  41.2119408  89.5939408  63.9450000  41.6049408  88.9659408  62.6240000
  36.1329408  83.5059408  80.1000000  36.3269408  83.2889408  79.1880000
  36.9599408  83.8419408  80.4480000  40.2109408  88.4339408  71.9620000
  41.0079408  88.2959408  71.4500000  40.5229408  88.6039408  72.8510000
  31.6809408  88.4499408  67.5820000  32.3499408  87.9409408  67.1260000
  30.8959408  87.9039408  67.5440000  55.9239408  82.7609408  73.2040000
  55.7279408  82.7439408  72.2670000  56.0819408  81.8459408  73.4340000
  49.3099408  86.6769408  74.0320000  49.6109408  86.8749408  74.9190000
  49.3619408  85.7229408  73.9680000  33.3539408  84.7089408  69.0660000
  33.7559408  85.5449408  69.3010000  32.5179408  84.9489408  68.6650000
  31.4129408  86.7549408  60.3960000  32.1889408  87.0679408  59.9310000
  31.2349408  85.8959408  60.0140000  59.6089408  87.8679408  75.3230000
  60.1049408  87.1339408  74.9590000  60.2649408  88.5469408  75.4810000
  52.3659408  74.6299408  68.6880000  51.7399408  74.6659408  69.4110000
  53.1379408  75.0919408  69.0160000  31.5119408  79.0599408  73.6060000
  30.8219408  79.4449408  73.0660000  32.0049408  78.5029408  73.0030000
  33.9449408  86.8669408  78.1460000  33.7629408  86.8199408  77.2080000
  34.4529408  87.6719408  78.2510000  43.2799408  82.0519408  75.6120000
  42.3279408  81.9589408  75.6370000  43.5199408  81.8259408  74.7140000
  42.9559408  81.3659408  66.3640000  43.4859408  81.8059408  65.6990000
  42.4029408  80.7609408  65.8690000  33.4409408  66.1809408  61.9050000
  34.0029408  66.8479408  61.5100000  33.9759408  65.7989408  62.6010000
  47.0119408  83.5979408  60.0990000  47.4669408  84.3679408  60.4400000
  46.1409408  83.9179408  59.8630000  48.2589408  72.5979408  67.4360000
  47.7069408  71.9699408  66.9700000  47.6589408  73.0499408  68.0290000
  30.1369408  63.5589408  65.8370000  29.9919408  62.6449408  65.5950000
  30.0729408  63.5669408  66.7920000  56.3759408  83.1479408  82.1470000
  55.9069408  83.8409408  81.6830000  57.2419408  83.1299408  81.7400000
  42.6159408  82.0489408  84.5270000  42.7129408  81.7699408  85.4380000
  43.1399408  81.4229408  84.0270000  34.7479408  86.4299408  62.0810000
  34.8309408  85.7089408  62.7050000  33.9279408  86.8609408  62.3190000
  39.2759408  86.4629408  74.7030000  39.7309408  86.2569408  75.5190000
  39.1089408  87.4049408  74.7520000  53.3719408  89.3539408  76.9710000
  53.3079408  88.3989408  76.9860000  52.9949408  89.6059408  76.1290000
  46.2559408  83.4489408  82.4580000  45.9049408  83.5529408  81.5740000
  45.4959408  83.5559408  83.0320000  36.9949408  75.9949408  80.7340000
  36.4209408  75.7369408  81.4560000  36.9939408  76.9519408  80.7580000
  46.4109408  87.9309408  76.0400000  46.7929408  88.4529408  76.7440000
  46.9819408  88.0879408  75.2870000  44.1419408  84.1589408  84.0840000
  43.6309408  83.3779408  84.2940000  43.5819408  84.6599408  83.4910000
  43.5379408  76.9969408  82.3460000  44.1009408  76.3869408  82.8230000
  43.4289408  76.5979408  81.4830000  43.4829408  79.4799408  83.5240000
  43.6019408  78.6709408  83.0260000  44.1959408  79.4769408  84.1620000
  35.5179408  80.8639408  60.6340000  34.6129408  80.9029408  60.3240000
  35.8689408  81.7369408  60.4600000  44.6979408  85.7839408  79.6430000
  44.8279408  85.7939408  78.6940000  44.6369408  84.8559408  79.8670000
  35.6269408  85.5319408  82.0670000  36.1349408  85.9269408  81.3580000
  35.2669408  84.7309408  81.6870000  54.5209408  77.0009408  82.3890000
  55.1209408  76.3069408  82.6620000  53.6929408  76.7869408  82.8180000
  40.6369408  81.0749408  75.7480000  41.0509408  80.3259408  76.1760000
  40.8889408  80.9959408  74.8280000  44.6019408  88.8039408  83.5100000
  45.1489408  88.3629408  84.1610000  44.6489408  89.7299408  83.7450000
  47.2359408  85.8399408  84.2300000  47.9919408  85.7569408  83.6490000
  46.6439408  85.1399408  83.9550000  46.3829408  85.0279408  76.5230000
  45.9809408  84.9789408  75.6560000  46.6939408  85.9299408  76.5930000
  29.8979408  85.6919408  82.9550000  29.7849408  84.8959408  83.4740000
  30.8379408  85.7319408  82.7780000  56.7709408  63.6649408  82.7270000
  56.7729408  62.8369408  83.2070000  57.3549408  64.2339408  83.2270000
  39.9189408  63.5539408  81.8240000  39.1149408  63.4609408  82.3350000
  40.5089408  62.8899408  82.1800000  38.4839408  72.6569408  72.7750000
  38.7579408  73.2109408  72.0450000  39.2489408  72.1129408  72.9640000
  34.8689408  82.0059408  64.4930000  35.4839408  82.3369408  63.8380000
  35.3879408  81.9349408  65.2950000  31.1839408  83.8679408  62.2820000
  31.7039408  83.3719408  61.6500000  31.6219408  83.7219408  63.1200000
  31.2759408  80.9209408  82.3260000  31.5259408  80.2529408  81.6880000
  31.9619408  81.5849408  82.2600000  37.4129408  86.2019408  80.0570000
  37.4249408  86.6489408  79.2110000  38.2419408  86.4469408  80.4690000
  51.6459408  85.8579408  79.2480000  51.8839408  85.4889408  78.3980000
  51.1379408  85.1669408  79.6750000  56.5009408  83.4099408  63.8900000
  57.2679408  83.2959408  63.3290000  56.1529408  84.2679408  63.6490000
  42.1069408  88.3369408  82.1520000  42.8629408  88.3479408  82.7390000
  41.9139408  89.2609408  81.9920000  36.9049408  89.6589408  84.4020000
  37.4049408  89.1249408  85.0190000  37.5369408  89.8999408  83.7250000
  45.8789408  62.1039408  81.6990000  45.5149408  61.9559408  82.5720000
  46.7829408  61.7959408  81.7610000  38.8949408  81.6709408  79.8570000
  38.2309408  81.5909408  79.1720000  38.9859408  80.7849408  80.2080000
  49.3409408  79.3989408  80.3370000  49.0289408  79.1119408  79.4790000
  48.5439408  79.5879408  80.8320000  43.0649408  61.5539408  80.0000000
  43.9649408  61.6039408  80.3230000  42.9399408  60.6309408  79.7800000
  40.1359408  82.0139408  83.1660000  40.2959408  82.4989408  82.3560000
  40.9959408  81.9489408  83.5810000  48.4869408  68.0279408  61.6070000
  49.1999408  68.3819408  62.1380000  48.0509408  68.7999408  61.2450000
  44.4529408  80.9099408  63.7780000  44.3679408  80.7669408  62.8350000
  45.0229408  80.2019408  64.0770000  37.1399408  87.5469408  77.6840000
  36.8289408  87.2759408  76.8200000  36.5409408  88.2459408  77.9460000
  45.7979408  88.7229408  63.2530000  45.6619408  87.7969408  63.0530000
  45.1299408  89.1799408  62.7420000  39.0859408  61.1759408  61.1750000
  38.4019408  60.5059408  61.1510000  38.6729408  61.9539408  60.8020000
  38.0329408  89.1679408  70.5370000  38.6119408  88.8459408  71.2270000
  37.5109408  89.8489408  70.9610000  42.8329408  76.8609408  73.8650000
  42.4649408  75.9809408  73.9370000  42.1939408  77.3459408  73.3420000
  35.5019408  60.1759408  80.8970000  35.1519408  60.8029408  81.5300000
  35.3639408  59.3209408  81.3060000  44.6709408  67.7959408  65.3550000
  45.3629408  67.6749408  64.7050000  44.3999408  66.9069408  65.5840000
  42.2429408  66.3459408  67.8770000  43.0639408  65.9189408  67.6340000
  41.5769408  65.9019408  67.3520000  54.9609408  75.1169408  66.4150000
  54.0719408  75.3439408  66.1410000  55.4919408  75.8699408  66.1570000
  49.3769408  67.5459408  72.7920000  49.5639408  67.9789408  71.9590000
  48.9799408  68.2279408  73.3340000  59.9389408  72.9329408  80.1570000
  59.2409408  73.5489408  79.9330000  59.5489408  72.0699408  80.0180000
  53.4369408  68.0999408  74.6000000  53.0629408  68.4679408  73.7990000
  53.0709408  67.2169408  74.6520000  57.4789408  63.9939408  70.6530000
  57.3369408  64.2939408  69.7560000  57.7139408  63.0699408  70.5640000
  53.8419408  67.9109408  71.1330000  53.2649408  68.4849408  70.6300000
  54.5029408  67.6239408  70.5030000  54.1399408  61.3499408  70.9420000
  53.2239408  61.4689408  71.1920000  54.1099408  60.7419408  70.2040000
  30.0609408  66.7279408  77.5830000  30.7789408  67.3319408  77.7720000
  29.7179408  67.0209408  76.7390000  49.3879408  72.0239408  61.7080000
  48.4449408  72.1189408  61.5730000  49.5609408  71.0969408  61.5410000
  48.6229408  64.8899408  72.5080000  49.1929408  64.4829408  71.8550000
  48.9969408  65.7609408  72.6440000  58.2209408  83.3229408  74.8680000
  57.5639408  83.4529408  74.1850000  59.0359408  83.1649408  74.3900000
  57.7609408  62.7849408  63.9490000  58.2159408  62.0179408  63.6010000
  57.0409408  62.9349408  63.3370000  45.8699408  67.0169408  60.6600000
  45.2029408  66.8519408  61.3270000  46.4569408  67.6569408  61.0610000
  55.9399408  65.4359408  74.7680000  56.1589408  65.8389408  73.9280000
  55.7629408  64.5199408  74.5560000  55.4509408  66.9699408  65.4990000
  54.8859408  66.2069408  65.3780000  55.7639408  67.1789408  64.6180000
  30.4629408  82.8909408  73.2580000  30.2129408  81.9829408  73.0880000
  31.3599408  82.8359408  73.5870000  44.7979408  71.2589408  80.4950000
  44.1209408  71.7319408  80.0110000  45.3779408  71.9449408  80.8280000
  48.4659408  83.8039408  69.1880000  48.8379408  84.6159408  68.8460000
  48.9149408  83.1109408  68.7040000  46.7079408  67.0059408  63.8860000
  47.1969408  67.5149408  63.2390000  46.7849408  66.0999408  63.5860000
  35.6159408  63.9159408  77.9620000  36.1299408  63.4149408  78.5940000
  35.1099408  63.2559408  77.4870000  55.2969408  65.6169408  79.7390000
  56.1719408  65.2819408  79.5430000  54.9219408  65.8239408  78.8830000
  40.5079408  67.1349408  80.9140000  41.3479408  66.7929408  80.6060000
  40.6289408  67.2549408  81.8560000  35.4309408  68.9249408  73.3460000
  34.5449408  68.8439408  73.6980000  35.4069408  69.7229408  72.8170000
  59.5329408  60.6999408  63.3760000  60.1959408  60.7629408  62.6890000
  59.1429408  59.8339408  63.2540000  49.1209408  71.3209408  73.8360000
  48.7309408  71.3989408  72.9650000  48.7629408  72.0599408  74.3270000
  53.4509408  76.6139408  77.9200000  53.0099408  77.2459408  77.3520000
  52.8429408  76.4799408  78.6470000  31.2429408  85.3819408  71.0890000
  31.8839408  84.7989408  70.6820000  30.4409408  84.8619408  71.1370000
  30.5589408  63.4369408  62.1060000  30.9039408  63.9419408  61.3700000
  29.6199408  63.3699408  61.9320000  55.4529408  83.0009408  66.3470000
  56.1639408  82.5919408  66.8410000  55.8259408  83.1649408  65.4810000
  49.8289408  72.1619408  64.8400000  50.2879408  72.3219408  65.6640000
  49.5549408  73.0299408  64.5450000  55.5609408  71.1319408  75.4750000
  55.1189408  70.5969408  76.1340000  54.8589408  71.6419408  75.0700000
  31.6959408  74.5629408  65.6540000  31.0739408  74.5129408  64.9270000
  31.7619408  73.6639408  65.9750000  56.7429408  63.6139408  77.8620000
  56.4659408  64.0829408  77.0750000  56.0469408  62.9769408  78.0200000
  51.2669408  60.7559408  68.5830000  51.3999408  61.0999408  69.4660000
  50.5919408  60.0849408  68.6870000  57.0209408  60.6149408  83.3560000
  56.1119408  60.3729408  83.1770000  57.4589408  59.7839408  83.5400000
  57.0549408  80.3509408  73.5330000  56.2059408  80.0659408  73.1960000
  57.4329408  79.5649408  73.9270000  53.3629408  65.0449408  71.8150000
  53.7649408  65.8809408  71.5770000  54.1039408  64.4649408  71.9930000
  54.9759408  61.0289408  80.1130000  54.6729408  61.3969408  79.2830000
  54.4759408  61.4979408  80.7810000  52.5319408  83.9129408  76.2690000
  53.3199408  83.8259408  76.8050000  52.8589408  84.0669408  75.3830000
  56.3219408  67.4929408  83.9420000  56.3019408  66.7529408  84.5480000
  57.1049408  67.9849408  84.1900000  30.1739408  71.8329408  71.6060000
  30.4409408  71.6049408  72.4960000  30.8999408  72.3529408  71.2630000
  55.7369408  79.1459408  68.1800000  54.8499408  79.1279408  68.5390000
  56.1869408  78.4239408  68.6170000  46.6539408  69.5689408  67.1000000
  46.2859408  69.1019408  66.3490000  47.5579408  69.2609408  67.1550000
  48.3429408  85.7469408  66.0430000  48.8659408  84.9999408  65.7510000
  47.5969408  85.7659408  65.4440000  34.7929408  85.8129408  65.2480000
  34.3529408  86.6369408  65.4600000  34.0799408  85.1949408  65.0880000
  53.2419408  83.1659408  70.4920000  52.9709408  83.7249408  69.7630000
  52.5509408  82.5069408  70.5570000  55.7379408  86.5139408  76.0000000
  55.5399408  85.6189408  75.7260000  54.8859408  86.8929408  76.2160000
  30.0309408  66.3349408  67.2890000  29.4529408  65.8939408  66.6650000
  30.7089408  66.7369408  66.7450000  35.4109408  61.6389408  74.1010000
  36.3529408  61.5459408  73.9540000  35.1199408  62.2449408  73.4200000
  42.0409408  63.7889408  60.3090000  41.4489408  64.5119408  60.1020000
  42.7159408  63.8299408  59.6310000  54.4599408  62.0869408  77.5660000
  54.6979408  62.1839408  76.6440000  53.9199408  61.2969408  77.5930000
  38.5499408  64.3989408  79.4280000  39.1569408  64.0959408  80.1040000
  37.8149408  63.7869408  79.4750000  51.2339408  61.7299408  71.0500000
  51.0569408  61.7479408  71.9900000  51.0979408  62.6329408  70.7630000
  52.1169408  66.2239408  76.4610000  51.5759408  66.8179408  76.9810000
  51.6809408  66.1839408  75.6100000  57.9949408  61.5439408  69.2960000
  57.6689408  60.7739408  69.7610000  57.5859408  61.4939408  68.4320000
  34.1849408  79.2609408  75.5620000  33.2749408  79.4589408  75.3410000
  34.2369408  79.3929408  76.5080000  51.5719408  76.0879408  79.4610000
  51.2589408  76.5549408  80.2350000  52.0279408  75.3219408  79.8100000
  54.5889408  72.8039408  78.0590000  55.3309408  72.2919408  77.7360000
  54.9889408  73.5189408  78.5550000  32.6959408  64.0899408  81.8710000
  32.3059408  63.5869408  81.1560000  32.9999408  64.8979408  81.4560000
  59.8669408  82.4849408  83.7190000  60.5199408  82.0109408  83.2050000
  59.1229408  82.5889408  83.1250000  60.0319408  69.3559408  67.3470000
  59.0959408  69.2539408  67.5190000  60.1719408  68.9109408  66.5120000
  42.1399408  67.4559408  72.2220000  43.0799408  67.4309408  72.0430000
  41.9669408  66.6499408  72.7080000  52.2569408  72.3619408  71.4830000
  51.7519408  73.1539408  71.2990000  52.2079408  71.8529408  70.6740000
  57.9939408  68.9349408  78.7130000  58.8849408  68.7869408  79.0320000
  57.4419408  68.4079408  79.2910000  32.6369408  68.9269408  68.6340000
  33.0599408  69.1289408  69.4690000  31.7709408  69.3279408  68.7010000
  31.9669408  68.2519408  78.4270000  32.8179408  68.6559408  78.5950000
  31.4089408  68.5619408  79.1400000  57.5039408  65.9579408  72.6760000
  57.6349408  65.1329408  72.2080000  57.4329408  66.6169408  71.9850000
  36.0659408  63.5049408  63.3350000  35.7129408  64.3689408  63.5490000
  35.3759408  63.0859408  62.8200000  50.1629408  63.2489408  67.1740000
  50.7889408  62.6829408  67.6270000  49.4289408  63.3299408  67.7820000
  46.8479408  89.6619408  70.6200000  46.3209408  89.0759408  71.1630000
  46.2789408  89.8849408  69.8840000  35.8869408  70.2809408  65.3640000
  35.6359408  70.8369408  66.1020000  35.8729408  70.8659408  64.6070000
  52.0509408  87.8479408  81.3780000  52.2919408  87.3129408  80.6220000
  52.4079408  88.7149408  81.1820000  56.0049408  88.4509408  80.5770000
  55.3879408  87.8689408  80.1320000  55.6789408  89.3319408  80.3920000
  45.9519408  75.9449408  60.6750000  45.0699408  75.6069408  60.8280000
  46.3909408  75.2529408  60.1800000  52.1649408  67.7679408  68.6350000
  53.0789408  67.4839408  68.6030000  52.1279408  68.5239408  68.0490000
  54.3869408  70.8979408  67.2380000  54.6949408  71.3449408  68.0260000
  55.0989408  71.0059408  66.6070000  50.4669408  87.5979408  76.5020000
  50.0149408  88.4079408  76.7400000  49.9129408  86.9009408  76.8520000
  47.1799408  84.4859408  71.5940000  47.1339408  84.0919408  70.7230000
  47.8769408  85.1389408  71.5260000  57.1109408  67.9229408  70.7590000
  56.6699408  68.6599408  71.1820000  57.2859408  68.2279408  69.8680000
  54.4309408  68.2329408  60.1660000  54.9999408  68.8329408  59.6840000
  54.9499408  67.9689408  60.9260000  57.6649408  77.8339408  80.4340000
  57.0099408  77.9209408  81.1270000  57.7929408  78.7259408  80.1110000
  50.4459408  65.7249408  65.9510000  50.6899408  64.9389408  66.4390000
  51.2809408  66.0999408  65.6680000  34.0989408  77.2339408  80.9040000
  33.5579408  77.6299408  80.2210000  34.7849408  77.8809408  81.0720000
  53.0409408  85.6989408  67.7480000  52.2169408  86.1149408  67.4950000
  53.0589408  84.8799408  67.2530000  45.0709408  63.1099408  71.9730000
  45.9309408  62.7019408  71.8700000  44.5769408  62.4959408  72.5170000
  31.2549408  66.8109408  74.1630000  30.3669408  66.7379408  74.5100000
  31.5479408  67.6809408  74.4330000  31.2039408  78.3319408  68.1590000
  31.7869408  78.4599408  68.9080000  30.4139408  77.9419408  68.5330000
  40.8509408  78.0429408  80.5640000  41.5169408  77.8769408  79.8970000
  40.6929408  77.1879408  80.9640000  55.3289408  73.5029408  71.5810000
  55.0329408  74.2309408  72.1270000  56.1189408  73.1829408  72.0170000
  57.1119408  87.8559408  74.3000000  56.6299408  87.3489408  74.9530000
  58.0099408  87.8809408  74.6300000  54.7879408  62.1149408  65.8990000
  54.1839408  61.3719408  65.9120000  55.6579408  61.7159408  65.9040000
  49.4179408  75.1679408  76.0930000  50.2329408  74.6729408  76.0060000
  49.6999408  76.0539408  76.3210000  57.7659408  73.5989408  63.8470000
  57.7389408  73.8419408  64.7720000  57.9009408  74.4269408  63.3850000
  35.1689408  74.5189408  76.3780000  35.8409408  74.4369408  77.0540000
  34.4199408  74.9079408  76.8290000  54.5049408  63.7859408  68.3370000
  54.6659408  63.1259408  67.6630000  55.3689408  63.9629408  68.7110000
  51.4209408  65.9589408  73.7260000  50.7449408  66.4539408  73.2630000
  52.0389408  65.6999408  73.0420000  34.4059408  70.8699408  61.0480000
  33.6999408  71.4429408  61.3470000  35.1239408  71.0339408  61.6600000
  47.9489408  77.1749408  71.2960000  47.9059408  76.2389408  71.0990000
  48.8179408  77.2979408  71.6800000  55.4809408  71.9639408  69.4060000
  55.1199408  72.5119408  70.1030000  56.2799408  71.5939408  69.7810000
  57.2379408  64.9699408  68.0610000  57.3909408  65.8909408  68.2740000
  57.5609408  64.8749408  67.1650000  46.7859408  78.4209408  61.6810000
  46.7219408  77.5299408  61.3370000  47.4129408  78.8559408  61.1040000
  52.8489408  73.5719408  79.9600000  53.5609408  73.2709408  79.3950000
  52.1069408  73.0129408  79.7290000  53.2589408  60.4689408  74.2250000
  53.7039408  59.7619408  73.7580000  53.9489408  61.1049408  74.4120000
  38.5139408  78.9249408  64.6940000  38.4449408  77.9949408  64.9100000
  37.8739408  79.0569408  63.9950000  30.9149408  72.1979408  63.5130000
  30.7669408  72.8599408  62.8380000  30.2449408  71.5339408  63.3490000
  46.2619408  65.6629408  71.8050000  47.1559408  65.3529408  71.9450000
  45.7269408  64.8699408  71.8260000  55.2609408  62.5219408  75.1500000
  56.1599408  62.1979408  75.2140000  55.1129408  62.6349408  74.2110000
  56.0369408  69.7699408  72.4210000  56.3529408  69.1019408  73.0300000
  55.0999408  69.8379408  72.6050000  53.0209408  68.4339408  63.5050000
  53.2149408  69.3699408  63.4500000  53.4379408  68.1499408  64.3190000
  48.3969408  61.7669408  64.5070000  48.1719408  61.0319408  65.0770000
  49.3529408  61.8069408  64.5340000  59.4079408  80.4649408  72.4830000
  58.5159408  80.4729408  72.8300000  59.2959408  80.4509408  71.5330000
  49.9099408  68.3669408  70.0660000  49.9099408  69.2509408  69.6990000
  50.6139408  67.9149408  69.6030000  52.3429408  77.8229408  73.7280000
  52.4789408  78.5569408  74.3260000  51.4959408  77.9999408  73.3180000
  48.5539408  78.9259408  84.6820000  48.7939408  78.2999408  85.3660000
  49.3529408  79.4279408  84.5250000  30.9789408  71.7839408  66.4660000
  30.8059408  71.5689408  65.5490000  30.8379408  70.9619408  66.9360000
  48.5449408  66.2349408  68.9460000  48.6869408  66.3049408  68.0020000
  48.8589408  67.0669408  69.2990000  47.5829408  62.1169408  71.6990000
  47.5359408  61.9249408  72.6360000  47.4419408  61.2719408  71.2740000
  53.0879408  66.0449408  62.2860000  53.1179408  66.9629408  62.5550000
  52.5769408  66.0479408  61.4770000  59.4029408  81.3029408  76.8030000
  59.1189408  82.1149408  76.3830000  60.2919408  81.4879408  77.1050000
  59.9999408  63.3119408  68.7350000  59.2879408  62.6869408  68.8720000
  59.6239408  64.1599408  68.9690000  37.9229408  60.9289408  67.0610000
  38.3859408  61.4039408  67.7510000  37.6119408  61.6119408  66.4670000
  56.0629408  66.2019408  62.8730000  56.7759408  66.4759408  62.2960000
  55.4759408  65.7009408  62.3070000  58.3659408  65.4669408  79.3010000
  58.8039408  65.9929408  78.6320000  58.0599408  64.6899408  78.8330000
  50.9419408  64.3839408  77.7550000  50.5819408  63.9059408  77.0080000
  51.5239408  65.0359408  77.3640000  59.4049408  69.7769408  61.2160000
  59.7829408  69.6169408  60.3520000  58.8879408  68.9919408  61.4010000
  51.4199408  73.2069408  84.2540000  51.6209408  72.3409408  84.6100000
  51.2789408  73.0559408  83.3200000  59.1759408  70.3779408  82.4850000
  58.2839408  70.5879408  82.2080000  59.0939408  70.1619408  83.4140000
  57.5159408  71.6489408  78.8270000  57.5849408  70.6959408  78.7670000
  57.6049408  71.8379408  79.7610000  58.1189408  73.0759408  83.9840000
  58.7619408  72.6759408  84.5710000  57.4529408  73.4369408  84.5690000
  51.7639408  73.3609408  62.3840000  51.7739408  73.7069408  61.4920000
  50.9559408  72.8499408  62.4340000  32.9169408  70.2559408  82.9200000
  32.3259408  70.8239408  82.4250000  33.4999408  70.8599408  83.3800000
  51.1939408  64.9999408  84.4080000  50.3499408  65.2639408  84.7730000
  51.2559408  64.0639408  84.5980000  32.6489408  67.0719408  83.3300000
  32.9159408  67.8839408  82.8980000  32.1039408  66.6239408  82.6820000
  57.0089408  67.7539408  80.9100000  57.1639408  67.5669408  81.8360000
  56.1749408  67.3249408  80.7160000  49.5569408  79.2589408  64.7920000
  49.8279408  78.5009408  64.2750000  49.5719408  79.9889408  64.1730000
  56.9399408  70.5709408  65.5480000  57.2969408  71.4359408  65.7460000
  57.5429408  70.2049408  64.9000000  52.1869408  67.3489408  83.2340000
  52.6329408  67.2299408  82.3960000  51.9849408  66.4599408  83.5270000
  53.0549408  86.8219408  75.9560000  52.1179408  86.8199408  76.1500000
  53.1779408  86.0819408  75.3610000  56.0829408  74.9759408  82.9120000
  56.8299408  74.5689408  82.4730000  56.1679408  74.7089408  83.8270000
  31.7139408  64.7479408  64.2270000  31.3929408  64.3309408  63.4270000
  31.0859408  64.4889408  64.9010000  54.2559408  83.5429408  78.3680000
  54.2759408  82.7569408  78.9150000  55.1489408  83.6239408  78.0320000
  55.2449408  75.1359408  79.2390000  54.6809408  75.3399408  79.9860000
  55.0279408  75.8009408  78.5860000  57.8889408  62.9389408  60.7890000
  57.1389408  62.3659408  60.9500000  57.5709408  63.8159408  61.0000000
  47.5889408  65.9449408  81.8650000  47.9269408  65.0509408  81.9150000
  48.2399408  66.4199408  81.3480000  50.0679408  66.6019408  80.6770000
  50.4109408  65.7399408  80.4420000  50.8469408  67.1369408  80.8290000
  59.4139408  63.1659408  76.0720000  59.2369408  62.3849408  76.5970000
  58.9069408  63.8589408  76.4960000  47.8799408  67.6249408  84.1220000
  47.7579408  66.6759408  84.0920000  47.0159408  67.9709408  84.3480000
  54.0009408  64.7069408  65.0710000  53.8849408  64.5229408  64.1390000
  54.2479408  63.8649408  65.4530000  58.6979408  64.9809408  83.9730000
  59.2289408  65.6649408  84.3820000  59.2709408  64.2149408  83.9480000
  39.8899408  71.8059408  77.1790000  40.2009408  71.2239408  77.8720000
  40.1229408  71.3559408  76.3660000  32.2539408  75.9619408  84.7120000
  31.4929408  75.4689408  84.4070000  33.0069408  75.4519408  84.4130000
  50.0029408  69.2039408  83.4090000  50.8009408  68.6759408  83.4560000
  49.3039408  68.6049408  83.6730000  53.6059408  72.7209408  74.1930000
  53.3069408  72.6279408  73.2890000  53.8659408  73.6389408  74.2670000
  53.0969408  67.0939408  80.7320000  53.5719408  67.7899408  80.2780000
  53.5829408  66.2959408  80.5220000  51.2829408  64.2129408  70.2370000
  52.1709408  64.4309408  70.5200000  50.9569408  65.0169408  69.8310000
  35.2779408  71.5559408  67.5480000  34.8449408  70.9229408  68.1220000
  35.5749408  72.2489408  68.1370000  36.0519408  66.0389408  72.9900000
  36.7619408  65.9259408  72.3580000  35.9799408  66.9859408  73.1040000
  56.9689408  86.1229408  82.1750000  57.8909408  86.2139408  82.4190000
  56.8059408  86.8519408  81.5770000  30.5089408  69.7659408  73.8980000
  29.8269408  69.7809408  74.5700000  30.2249408  69.0889408  73.2830000
  52.0069408  73.9469408  76.1180000  52.6479408  73.3789408  75.6900000
  52.4899408  74.3509408  76.8390000  33.1369408  75.9089408  77.4420000
  33.2879408  76.7359408  77.8990000  32.3239408  76.0479408  76.9560000
  54.1139408  63.7159408  81.1230000  54.5879408  64.4759408  80.7840000
  54.5419408  63.5189408  81.9560000  43.7419408  66.4529408  75.6390000
  44.2449408  66.8479408  74.9270000  43.4279408  67.1979408  76.1520000
  33.9139408  74.3159408  80.0960000  33.3239408  75.0459408  80.2810000
  33.8699408  74.2069408  79.1460000  49.3529408  69.0949408  79.9650000
  48.9699408  69.8979408  80.3180000  49.1119408  68.4159408  80.5960000
  47.2159408  62.2419408  74.2630000  47.4569408  61.6839408  75.0030000
  46.9959408  63.0849408  74.6600000  36.1759408  63.6459408  83.8610000
  37.0319408  63.4339408  84.2340000  35.6269408  63.8449408  84.6190000
  30.6509408  74.1239408  83.5250000  29.7119408  73.9479408  83.5810000
  30.9809408  73.4709408  82.9080000  32.0539408  72.5049408  81.6720000
  32.7779408  73.0489408  81.3630000  31.3189408  72.7389408  81.1060000
  34.6389408  68.2059408  60.3610000  34.5499408  69.1419408  60.5400000
  35.5799408  68.0399408  60.4160000  33.5789408  65.2939408  74.7230000
  34.2869408  65.7469408  74.2640000  32.8469408  65.9109408  74.7040000
  44.3679408  68.5949408  80.4910000  44.4269408  69.5469408  80.5680000
  44.3979408  68.4279408  79.5490000  32.4339408  89.4479408  81.3220000
  31.7669408  88.7629408  81.3040000  32.1439408  90.0829408  80.6670000
  49.6399408  77.0629408  81.6660000  50.2749408  77.2579408  82.3550000
  49.4069408  77.9179408  81.3040000  57.1349408  72.3819408  81.4320000
  56.3539408  71.8949408  81.6950000  57.7049408  72.3559408  82.2000000
  31.7099408  64.5589408  77.3620000  31.2679408  64.1129408  76.6390000
  31.0809408  65.2169408  77.6580000  33.7859408  63.1389408  65.5410000
  34.7399408  63.2159408  65.5740000  33.5029408  63.8839408  65.0110000
  52.3099408  70.3559408  81.7640000  51.7209408  71.1059408  81.6740000
  51.7629408  69.6659408  82.1410000  58.6129408  80.5529408  80.3810000
  59.2029408  80.8629408  81.0670000  58.5069408  81.3039408  79.7970000
  54.3199408  75.3179408  73.4330000  53.7379408  76.0469408  73.2200000
  54.8819408  75.6559408  74.1310000  52.5469408  75.5769408  64.2880000
  51.8889408  76.0879408  63.8160000  52.4899408  74.7009408  63.9070000
  49.5539408  60.0589408  77.2370000  49.8519408  60.3489408  76.3750000
  48.6799408  60.4369408  77.3290000  49.7779408  83.9979408  73.5600000
  50.2779408  84.1409408  72.7560000  50.3799408  83.5269408  74.1360000
  46.2369408  62.5929408  67.0360000  46.4979408  61.7169408  66.7530000
  47.0569408  63.0199408  67.2820000  47.8549408  63.6489408  68.8230000
  48.0219408  64.5789408  68.9790000  47.6949408  63.2839408  69.6930000
  51.6989408  60.0119408  79.4060000  52.3109408  59.7979408  78.7010000
  50.9559408  60.4209408  78.9620000  57.1489408  81.4149408  68.1260000
  57.0169408  81.9989408  68.8730000  56.3659408  80.8649408  68.1090000
  51.1139408  62.1109408  64.7390000  51.1109408  62.6599408  65.5240000
  51.5609408  62.6399408  64.0780000  52.0079408  70.1399408  76.2200000
  51.9829408  70.3189408  75.2790000  52.8879408  69.7949408  76.3750000
  46.6089408  78.0909408  73.3550000  46.7289408  77.5009408  72.6110000
  47.4469408  78.5439408  73.4390000  57.8639408  77.4319408  69.3610000
  57.7469408  77.2979408  70.3010000  58.3079408  78.2779408  69.2930000
  31.0329408  85.6039408  73.9710000  30.2089408  85.2399408  74.2930000
  31.2309408  85.0919408  73.1870000  31.9339408  89.6879408  78.6420000
  32.2469408  88.7839408  78.6550000  31.5109408  89.7829408  77.7880000
  31.1559408  78.4609408  80.0400000  30.2709408  78.7809408  79.8660000
  31.0349408  77.5459408  80.2950000  32.0799408  88.3339408  63.5080000
  31.6479408  88.7749408  62.7770000  32.4669408  89.0439408  64.0210000
  47.4589408  79.6149408  66.9330000  46.5709408  79.2699408  67.0270000
  47.7209408  79.3639408  66.0470000  56.6749408  77.5639408  73.5590000
  56.2789408  77.7839408  74.4030000  56.8119408  76.6169408  73.5990000
  49.9319408  83.5469408  65.4520000  49.4589408  82.7149408  65.4690000
  50.8459408  83.3059408  65.6030000  53.0439408  81.6259408  73.4910000
  52.5689408  81.6099408  72.6600000  53.9519408  81.4399408  73.2520000
  52.5659408  83.1829408  66.2490000  52.5139408  82.3989408  66.7960000
  53.4839408  83.2299408  65.9820000  32.7359408  83.2419408  81.7040000
  32.8889408  83.6109408  80.8350000  32.5469408  83.9999408  82.2570000
  55.2289408  63.2469408  72.4100000  54.8559408  62.6399408  71.7710000
  56.0849408  63.4789408  72.0500000  33.0529408  86.7679408  75.5720000
  32.4119408  86.2939408  75.0430000  33.1159408  87.6289408  75.1590000
  55.6729408  80.8899408  83.2500000  55.9379408  81.6929408  82.8020000
  55.0279408  80.4909408  82.6670000  58.0719408  75.0429408  74.1250000
  58.3279408  74.1539408  73.8810000  58.7059408  75.6059408  73.6790000
  51.4969408  77.6769408  68.9910000  50.6869408  77.9649408  69.4120000
  51.2069408  77.1699408  68.2330000  51.3089408  81.2979408  70.9070000
  50.3719408  81.3809408  71.0840000  51.3559408  80.9219408  70.0280000
  52.7679408  79.3119408  77.3790000  52.3009408  80.0629408  77.0110000
  53.4259408  79.6989408  77.9570000  49.7129408  81.5399408  67.5910000
  49.1179408  80.8719408  67.2500000  50.5109408  81.0599408  67.8100000
  53.7039408  77.7479408  70.5130000  54.1529408  76.9339408  70.2860000
  52.9529408  77.7799408  69.9200000  57.1539408  85.2229408  78.8610000
  57.2309408  84.5909408  78.1470000  57.9429408  85.7599408  78.7930000
  58.9979408  75.2499408  77.3840000  58.6679408  75.0439408  78.2580000
  58.5579408  74.6249408  76.8080000  47.0249408  82.7099408  77.6690000
  46.8809408  82.0149408  77.0260000  46.7759408  83.5139408  77.2140000
  55.5159408  62.1409408  62.2740000  54.6969408  62.6339408  62.2290000
  55.2789408  61.3189408  62.7030000  48.1619408  71.4479408  78.1310000
  48.1129408  71.6889408  79.0560000  49.0279408  71.7449408  77.8520000
  41.7949408  64.1809408  75.4660000  41.0579408  64.3869408  76.0420000
  42.4969408  64.7619408  75.7580000  56.7179408  83.2369408  77.1170000
  57.0469408  83.5299408  76.2670000  56.4409408  82.3329408  76.9690000
  48.1019408  89.3339408  73.8490000  48.8249408  89.9569408  73.9170000
  48.5209408  88.5029408  73.6270000  30.8829408  75.8929408  80.9960000
  31.0199408  75.6469408  81.9110000  30.0429408  75.4959408  80.7640000
  59.7119408  87.0349408  78.1520000  59.5509408  87.4989408  77.3300000
  59.2639408  87.5589408  78.8150000  37.1339408  83.6299408  77.5170000
  36.9599408  84.4419408  77.0430000  37.4829408  83.0339408  76.8540000
  34.8129408  80.6049408  80.3340000  34.8989408  81.5329408  80.5520000
  34.8869408  80.1529408  81.1740000  55.3029408  86.0099408  71.7730000
  55.0519408  85.5969408  70.9470000  54.6769408  86.7259408  71.8830000
  45.4609408  83.4619408  63.0360000  45.9439408  83.2799408  62.2300000
  45.3659408  82.6069408  63.4560000  43.5109408  87.9189408  75.3630000
  44.4469408  87.8499408  75.5500000  43.2639408  87.0499408  75.0470000
  46.0469408  64.5639408  75.7710000  46.0809408  64.5099408  76.7260000
  45.4529408  65.2939408  75.5940000  32.8799408  87.4629408  72.2670000
  32.0239408  87.0379408  72.2150000  33.2679408  87.3299408  71.4030000
  30.1709408  85.8719408  63.6420000  30.6029408  85.3299408  62.9810000
  30.8439408  86.4929408  63.9200000  51.9069408  80.2649408  68.2860000
  51.7919408  79.3209408  68.3890000  52.4119408  80.3589408  67.4790000
  50.8209408  85.7819408  71.5460000  50.6039408  85.9449408  70.6280000
  50.7959408  86.6459408  71.9560000  57.3569408  61.1799408  66.2670000
  57.6309408  61.6629408  65.4870000  58.0139408  60.4909408  66.3660000
  48.4929408  80.8929408  71.3400000  48.2899408  80.2629408  70.6490000
  47.8709408  81.6069408  71.2050000  39.8979408  88.3239408  77.5680000
  40.5479408  87.6229408  77.5210000  39.0609408  87.8869408  77.4100000
  30.6229408  85.0849408  79.8260000  31.5509408  84.8679408  79.9130000
  30.5909408  85.7159408  79.1080000  59.5049408  69.6089408  63.9390000
  59.2369408  69.4409408  63.0360000  60.3389408  69.1489408  64.0320000
  54.9399408  88.5519408  72.8940000  55.6679408  88.0659408  73.2810000
  55.3499408  89.3119408  72.4820000  56.2609408  80.5759408  76.5330000
  55.9599408  79.7359408  76.1870000  57.1519408  80.4039408  76.8380000
  30.9209408  89.9589408  69.9480000  31.4189408  89.3979408  69.3520000
  30.0779408  90.0829408  69.5120000  30.1289408  60.2789408  66.1440000
  30.1339408  60.2069408  65.1890000  30.6739408  59.5509408  66.4420000
  50.1059408  86.3139408  68.9570000  50.3829408  86.3689408  68.0430000
  49.8789408  87.2129408  69.1940000  47.8029408  61.4979408  62.0150000
  47.8179408  61.3079408  62.9530000  47.9959408  60.6579408  61.5970000
  51.2849408  81.4409408  63.2030000  52.1909408  81.6019408  63.4660000
  50.9289408  82.3109408  63.0260000  54.8339408  78.1349408  75.5300000
  55.1179408  77.2749408  75.8380000  54.2629408  78.4619408  76.2250000
  55.9399408  83.0769408  70.1740000  55.0409408  82.8989408  70.4490000
  55.8779408  83.8789408  69.6550000  30.5509408  83.0329408  68.3860000
  30.1859408  83.4379408  67.6000000  29.8569408  83.1109408  69.0410000
  49.0939408  85.2559408  77.6310000  48.8449408  85.5209408  78.5160000
  48.5189408  84.5169408  77.4310000  54.6889408  86.4959408  83.9890000
  55.4609408  86.4079408  83.4300000  54.0209408  85.9579408  83.5630000
  49.7889408  87.3129408  83.2930000  50.5389408  87.1429408  82.7230000
  49.6029408  88.2449408  83.1720000  47.6129408  80.7449408  63.2240000
  47.4149408  79.8939408  62.8320000  47.7729408  81.3209408  62.4770000
  58.7029408  83.2359408  80.3090000  59.5569408  83.6369408  80.1500000
  58.0819408  83.8059408  79.8540000  49.1839408  82.3919408  79.3730000
  48.8759408  82.0519408  80.2130000  48.3959408  82.4469408  78.8330000
  52.4529408  82.8319408  84.3870000  53.2899408  83.2969408  84.4070000
  51.9209408  83.3219408  83.7600000  59.3329408  80.1069408  69.6110000
  60.1389408  80.5079408  69.2850000  58.7129408  80.1949408  68.8870000
  59.7389408  61.2499408  82.7270000  59.9719408  60.5979408  82.0660000
  58.7969408  61.1349408  82.8560000  56.4519408  78.2429408  83.9800000
  56.5979408  79.0739408  83.5290000  55.5169408  78.0689408  83.8690000
  32.8429408  85.7119408  83.1490000  33.7689408  85.4969408  83.0340000
  32.8479408  86.5679408  83.5780000  58.0669408  75.0089408  80.1910000
  58.0739408  75.9439408  79.9830000  57.1889408  74.8459408  80.5340000
  59.9059408  88.0329408  81.8660000  59.3759408  88.3819408  82.5830000
  60.0419408  87.1129408  82.0930000  50.8229408  80.4389408  84.5460000
  51.4419408  81.1659408  84.6110000  50.8099408  80.2179408  83.6140000
  33.7959408  62.6399408  61.5360000  33.1589408  63.0979408  60.9870000
  33.2689408  62.0539408  62.0780000  54.2699408  89.2149408  84.6630000
  54.2869408  88.9489408  85.5820000  54.4699408  88.4149408  84.1780000
  50.7379408  63.9019408  80.2470000  50.8629408  63.9519408  79.3000000
  51.6089408  64.0529408  80.6130000  59.0199408  88.8129408  84.3330000
  59.8619408  89.1639408  84.6250000  58.8459408  88.0819408  84.9260000
  47.0399408  88.4119408  84.8180000  47.5809408  88.5059408  85.6020000
  47.1749408  87.5059408  84.5410000  53.6199408  84.9529408  82.0760000
  52.8519408  84.5989408  81.6270000  54.1499408  85.3379408  81.3780000
  51.2529408  83.5169408  80.7880000  50.5179408  83.0819408  80.3570000
  50.8559408  83.9929408  81.5170000  33.1729408  89.6979408  83.8650000
  32.8949408  89.4999408  82.9710000  33.6089408  90.5479408  83.7990000
  54.4219408  69.4159408  80.1160000  55.2529408  69.6309408  80.5400000
  53.7539408  69.7569408  80.7110000  32.7039408  81.1609408  60.5350000
  31.8629408  81.6189408  60.5440000  32.8899408  81.0209408  59.6060000
  48.5739408  86.5729408  79.9790000  49.3969408  87.0059408  80.2050000
  47.9349408  86.9379408  80.5900000  53.9579408  61.6669408  83.3620000
  53.0839408  61.9459408  83.6370000  54.0009408  60.7409408  83.6010000
  53.5929408  80.4459408  66.1030000  54.4549408  80.0469408  66.2220000
  53.6239408  80.8299408  65.2270000  51.0189408  81.9559408  77.3460000
  50.6409408  82.0609408  78.2200000  51.4569408  82.7889408  77.1720000
  59.3579408  66.4659408  81.7420000  58.9689408  66.1709408  80.9190000
  59.0259408  65.8529408  82.3980000  35.0389408  80.2599408  83.3180000
  35.4329408  80.8059408  83.9980000  34.2329408  79.9279408  83.7140000
  52.3159408  60.6029408  60.0200000  52.8489408  60.3259408  60.7650000
  52.9519408  60.8169408  59.3370000  32.0639408  62.4419408  79.6400000
  32.0359408  63.1009408  78.9460000  31.3919408  61.8059408  79.3950000
  46.0279408  89.2599408  78.5900000  45.0909408  89.1729408  78.4130000
  46.1359408  88.9249408  79.4800000  50.3859408  84.2079408  83.2040000
  50.0829408  85.1069408  83.3300000  49.8389408  83.6859408  83.7910000
  30.8689408  66.2169408  60.9050000  31.1979408  66.6709408  60.1290000
  31.6129408  66.1979408  61.5060000  40.0009408  86.2329408  81.9690000
  40.8279408  85.7619408  82.0740000  40.2609408  87.1449408  81.8330000
  43.1139408  89.2469408  78.1040000  43.4209408  88.6579408  77.4150000
  42.3449408  89.6749408  77.7280000  34.1209408 103.6749408  13.7610000
  34.0209408 104.4239408  14.3480000  34.6659408 103.0579408  14.2490000
  49.4019408 107.0039408   3.4620000  49.3069408 106.1259408   3.8320000
  48.6369408 107.1089408   2.8970000  36.9639408 117.2739408   4.1330000
  36.2589408 116.7169408   4.4630000  36.9889408 118.0129408   4.7410000
  51.1249408  91.1489408  21.7350000  50.9649408  90.2999408  21.3230000
  51.6349408  91.6379408  21.0890000  36.7109408 108.7099408  21.4700000
  36.3839408 109.3649408  22.0880000  37.6529408 108.8729408  21.4250000
  41.8849408 101.9679408  12.0810000  41.2899408 101.2449408  12.2800000
  42.7569408 101.5759408  12.1090000  35.8789408  96.9689408   8.7010000
  35.4139408  96.1719408   8.4480000  35.9029408  97.4959408   7.9020000
  45.1049408 107.8279408  15.6050000  44.2939408 107.6459408  15.1300000
  45.7899408 107.7719408  14.9380000  30.6359408 104.0729408   8.5360000
  29.8129408 104.3929408   8.1640000  30.9089408 103.3719408   7.9450000
  48.8559408 108.6129408   9.2840000  48.4689408 108.1719408  10.0410000
  48.1489408 109.1559408   8.9360000  39.0639408  98.6819408  17.8260000
  38.4579408  98.2489408  18.4280000  39.3939408  97.9759408  17.2700000
  41.2259408 101.3479408   5.7040000  40.6419408 101.7979408   6.3140000
  41.6789408 100.6969408   6.2400000  47.4669408 105.2269408  17.9080000
  47.9479408 105.1439408  18.7320000  48.1319408 105.1079408  17.2300000
  52.0799408  99.5039408   6.3360000  51.9909408  99.7379408   5.4120000
  52.7389408 100.1109408   6.6740000  35.6149408 103.6859408   8.9500000
  35.7649408 103.7169408   9.8950000  34.7539408 104.0859408   8.8300000
  59.3079408 108.9599408  15.2020000  59.6479408 109.5329408  15.8900000
  59.8979408 109.0979408  14.4610000  32.5329408  97.1629408  28.8470000
  33.2739408  97.5749408  29.2930000  32.8629408  96.9599408  27.9720000
  42.9309408 115.5519408  14.1980000  43.8639408 115.3599408  14.1090000
  42.5239408 115.1209408  13.4470000  58.0369408  95.5629408   5.5490000
  57.0969408  95.6829408   5.4130000  58.2159408  94.6789408   5.2300000
  48.3629408 111.3589408   0.6810000  47.7089408 112.0489408   0.5670000
  48.2789408 110.8169408  -0.1030000  40.6849408 105.9839408   6.6650000
  41.1339408 106.8249408   6.7490000  39.8769408 106.0929408   7.1670000
  48.4319408  94.8569408  25.0460000  48.1149408  94.5139408  25.8810000
  48.3719408  94.1159408  24.4430000  58.7999408  99.9389408  15.7730000
  57.8609408  99.9999408  15.5990000  58.8569408  99.5959408  16.6650000
  32.3889408 110.7699408   3.8460000  33.1819408 111.3059408   3.8470000
  32.6729408 109.9199408   4.1820000  47.9779408 104.4559408  10.6650000
  47.2519408 104.3639408  10.0480000  47.7039408 103.9559408  11.4340000
  39.6549408 114.0029408  30.1860000  39.0479408 114.5939408  29.7410000
  40.5229408 114.3469408  29.9750000  43.5299408 104.6779408   0.5350000
  42.9009408 103.9769408   0.7060000  43.0779408 105.2629408  -0.0730000
  46.9329408 112.0279408  13.3670000  47.2779408 112.9039408  13.1980000
  47.6629408 111.4399408  13.1730000  41.7599408 113.1179408   8.5430000
  41.6899408 113.8819408   7.9720000  42.0759408 112.4179408   7.9710000
  44.5309408 116.0489408   1.8910000  45.1549408 116.0429408   1.1650000
  44.9719408 115.5639408   2.5890000  31.5889408  97.8679408   5.1380000
  31.9129408  97.0799408   4.7030000  32.3749408  98.2939408   5.4810000
  34.3779408  91.6949408  16.6380000  33.4469408  91.8319408  16.4640000
  34.7679408  91.5709408  15.7730000  41.0189408  92.1809408  18.1460000
  40.7569408  93.1019408  18.1390000  41.6919408  92.1279408  18.8240000
  45.1549408  90.6799408   8.8720000  44.7649408  91.4279408   8.4200000
  45.0899408  89.9599408   8.2450000  45.4189408 104.0349408  13.0950000
  44.8099408 103.9809408  13.8320000  44.8679408 104.2559408  12.3440000
  36.8749408 116.9259408   9.7580000  37.0919408 117.8089408  10.0560000
  37.0169408 116.9499408   8.8120000  42.2769408  99.0759408  26.9600000
  41.8759408  99.8269408  26.5240000  42.9859408  99.4519408  27.4820000
  58.5349408 105.5709408   7.6430000  58.4489408 106.1489408   6.8850000
  58.1879408 106.0809408   8.3750000  38.3539408  96.3839408   3.5020000
  39.0179408  96.9059408   3.0520000  37.9879408  96.9769408   4.1590000
  54.3849408  99.4109408  17.3650000  54.7209408  98.5179408  17.2950000
  54.2909408  99.5589408  18.3060000  37.7939408 103.7699408   7.0920000
  37.1589408 103.5089408   7.7590000  38.3649408 103.0079408   6.9930000
  39.0859408  92.8069408  12.3010000  39.2659408  93.2629408  11.4790000
  39.7729408  93.1059408  12.8980000  45.8509408 103.9929408   9.0110000
  45.1649408 104.5659408   8.6690000  45.4019408 103.1709408   9.2080000
  37.6489408 107.3009408  12.5020000  37.1329408 107.8939408  13.0490000
  37.6139408 106.4609408  12.9600000  52.4549408  93.6049408   2.6640000
  51.6819408  93.5749408   2.1000000  52.7979408  94.4919408   2.5530000
  51.2289408 110.5009408  14.9470000  50.8759408 111.0379408  15.6570000
  51.9479408 111.0209408  14.5870000  37.2079408  98.2029408  29.8520000
  37.3599408  98.7419408  30.6280000  38.0649408  98.1409408  29.4310000
  40.4099408 115.8839408  26.7950000  40.4019408 116.2829408  25.9250000
  39.6159408 116.2129408  27.2170000  41.1919408 116.2969408   1.5580000
  41.2509408 117.2469408   1.6600000  41.6389408 115.9449408   2.3270000
  34.6869408  93.6109408  12.3470000  33.8339408  93.9499408  12.0730000
  35.2309408  94.3909408  12.4540000  43.1469408 102.3189408  27.0580000
  43.5739408 102.0469408  26.2450000  43.8619408 102.4039408  27.6880000
  41.3659408 110.8169408  12.9800000  41.3449408 111.5859408  12.4090000
  42.2869408 110.5579408  12.9990000  45.5709408  94.5019408  23.2080000
  46.1229408  95.1429408  22.7600000  45.2669408  93.9189408  22.5130000
  44.5329408 109.5259408   7.8070000  44.0209408 108.9609408   8.3850000
  43.9069408 110.1799408   7.4950000  34.9169408 104.0799408   6.0540000
  35.2429408 103.2809408   6.4690000  34.3959408 104.5079408   6.7330000
  41.9419408  94.9309408  18.4310000  42.8109408  95.3169408  18.3240000
  41.7659408  94.9919408  19.3700000  32.9999408 113.7209408   4.9930000
  32.5599408 113.1309408   5.6050000  33.7909408 113.2499408   4.7310000
  39.3909408  95.9979408  13.5600000  38.4679408  95.8209408  13.7410000
  39.5449408  95.6099408  12.6990000  36.4589408 109.0469408  14.2110000
  35.7969408 108.9559408  14.8960000  37.0899408 109.6709408  14.5690000
  42.7269408  94.7419408  13.0350000  43.5559408  94.2759408  12.9230000
  42.3699408  94.4009408  13.8560000  40.9189408 105.5149408  11.9010000
  40.0709408 105.1079408  11.7250000  40.7289408 106.4519408  11.9560000
  41.2779408  98.6519408   9.3500000  41.3409408  97.9429408   9.9910000
  40.6729408  99.2789408   9.7440000  37.3769408 118.8119408   1.6800000
  36.6809408 118.2869408   1.2850000  37.2869408 118.6599408   2.6210000
  45.6899408 108.6069408   4.5490000  45.8669408 108.6029408   3.6090000
  46.2479408 107.9129408   4.9010000  36.0069408  90.8799408   4.4630000
  36.8559408  90.4709408   4.2940000  36.1609408  91.8149408   4.3310000
  39.4119408  98.7209408   6.5640000  39.9009408  98.4549408   7.3430000
  40.0189408  99.2819408   6.0810000  40.9679408 108.3959408  15.9660000
  41.6029408 107.8829408  15.4660000  40.1389408 107.9329408  15.8490000
  39.0729408 100.0809408   9.9790000  39.3089408 100.3209408  10.8750000
  38.1399408  99.8699408  10.0250000  38.6629408 113.0849408   5.7270000
  39.1639408 112.7029408   6.4480000  39.3049408 113.2099408   5.0280000
  42.1909408  93.0269408   6.6490000  42.5829408  93.5069408   7.3790000
  42.8259408  92.3399408   6.4440000  32.7639408 100.3209408  15.9390000
  32.1979408 100.7929408  15.3280000  32.1579408  99.8679408  16.5260000
  33.7929408  95.9289408  18.5460000  34.5359408  95.3939408  18.2680000
  33.0419408  95.5539408  18.0850000  37.2649408  95.4869408  10.7700000
  36.6499408  96.0649408  10.3180000  37.6409408  94.9459408  10.0760000
  34.4899408  94.3149408   8.6110000  33.8189408  93.6769408   8.8510000
  34.7519408  94.0669408   7.7250000  48.2059408 101.1969408  11.0920000
  48.7899408 101.1579408  10.3350000  47.3289408 101.0939408  10.7250000
  42.6159408  92.7419408   2.6460000  42.2479408  93.1119408   1.8440000
  43.2749408  93.3789408   2.9240000  33.9959408 100.0319408  19.2360000
  34.7059408  99.4889408  18.8920000  34.1359408 100.8909408  18.8370000
  43.6049408  99.6929408   3.1680000  44.0819408  98.9459408   3.5280000
  44.2209408 100.4239408   3.2310000  40.6809408 101.2849408   0.4750000
  40.9629408 101.9649408  -0.1370000  40.5939408 101.7389408   1.3140000
  36.1979408 118.7859408   7.3920000  35.6229408 119.3219408   7.9370000
  36.9389408 119.3569408   7.1890000  45.6389408  96.6119408   8.9870000
  45.6199408  96.6119408   9.9440000  46.5409408  96.8459408   8.7660000
  46.1629408 110.3279408   9.8410000  45.8969408 110.1039408   8.9500000
  45.7949408 109.6309408  10.3840000  48.8369408 109.6889408  13.6890000
  49.6529408 109.8079408  14.1740000  49.0429408 109.9709408  12.7980000
  37.3569408 104.9479408  14.1060000  36.7409408 104.6609408  14.7800000
  37.7119408 104.1349408  13.7450000  52.1589408 101.9809408   8.6940000
  52.2029408 102.9319408   8.6020000  52.8179408 101.6489408   8.0840000
  31.5759408  91.8369408  12.3790000  31.6699408  91.3979408  11.5340000
  31.7809408  92.7539408  12.1980000  39.7979408 103.5629408  20.7020000
  39.9119408 102.6129408  20.6900000  40.2249408 103.8659408  19.9000000
  35.8779408 101.1339408  28.3530000  36.6849408 101.2089408  28.8610000
  35.1959408 100.9759408  29.0060000  42.6309408 103.1459408  14.3340000
  42.2629408 103.3379408  13.4710000  42.9819408 102.2589408  14.2530000
  40.1429408  98.5439408   2.9460000  40.7999408  98.6049408   2.2530000
  40.5939408  98.8529408   3.7320000  34.7069408 105.4199408  23.1280000
  34.5639408 105.8999408  22.3120000  34.9709408 106.0909408  23.7570000
  32.9149408 106.4549408  14.3630000  33.5279408 107.1049408  14.7050000
  32.2449408 106.3749408  15.0420000  39.9729408  91.6209408   9.1660000
  40.8859408  91.7839408   8.9290000  40.0159408  91.2549408  10.0490000
  42.5159408  99.3919408   7.0440000  42.9239408  98.9559408   6.2950000
  42.6179408  98.7729408   7.7670000  50.6819408 104.5549408  10.8580000
  50.4699408 104.9719408  11.6930000  49.8309408 104.3559408  10.4670000
  48.2509408 100.8129408  27.5970000  47.9399408 100.8729408  26.6940000
  49.1989408 100.9269408  27.5330000  35.0659408 102.1979408  18.1450000
  35.8319408 101.7159408  17.8330000  34.6889408 102.5859408  17.3550000
  34.4699408  96.9909408  21.0950000  34.3759408  96.7169408  20.1820000
  34.4599408  97.9469408  21.0610000  46.7989408  98.8369408  21.9130000
  46.1259408  98.2629408  21.5470000  47.3839408  98.2479408  22.3890000
  47.3339408  91.3149408  17.3720000  47.1459408  92.1649408  17.7700000
  46.5919408  90.7639408  17.6200000  34.3569408 114.6489408  13.1330000
  35.1819408 115.0809408  12.9100000  33.8739408 115.2999408  13.6410000
  36.0859408 104.8579408  11.4430000  35.4669408 105.3769408  10.9300000
  35.9959408 105.1919408  12.3360000  43.4409408 106.1729408   8.5040000
  43.3789408 105.9409408   7.5780000  42.7799408 106.8539408   8.6260000
  38.5019408  94.1379408   8.6120000  38.8629408  94.4539408   7.7840000
  38.9809408  93.3279408   8.7890000  39.2219408 119.9579408  19.5540000
  39.1209408 119.3189408  18.8490000  39.7729408 120.6449408  19.1780000
  35.8979408 116.1729408  15.7840000  34.9769408 116.4009408  15.6590000
  36.2559408 116.1269408  14.8980000  34.1719408  98.0399408   6.5580000
  33.5999408  98.3309408   7.2680000  34.3229408  98.8259408   6.0330000
  50.9309408  98.1219408  17.8530000  50.4899408  98.4399408  18.6410000
  51.2959408  98.9089408  17.4480000  33.5469408 119.1949408  14.3880000
  33.4529408 118.7309408  13.5560000  34.0779408 119.9629408  14.1760000
  37.6459408 105.5889408   0.5610000  38.1379408 104.9059408   1.0160000
  38.1499408 106.3889408   0.7110000  39.7719408  92.8839408   5.6410000
  40.6209408  92.7349408   6.0590000  39.7999408  92.3549408   4.8440000
  39.0259408 106.3989408  15.6100000  38.7289408 106.0099408  16.4320000
  38.4029408 106.0809408  14.9560000  54.9449408 100.7089408  22.4340000
  54.4059408 100.1399408  22.9830000  54.3479408 101.3989408  22.1430000
  42.9919408  96.0789408  20.9050000  43.2669408  96.9929408  20.8340000
  43.4549408  95.7489408  21.6750000  43.9919408 100.0189408  29.0960000
  44.7189408  99.4589408  29.3680000  44.3539408 100.5539408  28.3890000
  45.0069408  97.1169408  28.0480000  45.2319408  97.0419408  28.9750000
  44.1499408  96.6969408  27.9740000  49.7759408 107.0209408   6.7930000
  49.6259408 107.7959408   6.2530000  49.1299408 107.0889408   7.4960000
  54.9269408 105.3199408   9.5870000  55.3159408 104.5869408  10.0650000
  55.3279408 105.2809408   8.7190000  35.7419408 101.5499408  12.2860000
  35.5099408 101.7689408  13.1890000  36.5849408 101.9799408  12.1450000
  59.0709408  92.3679408  13.5800000  59.1899408  92.7229408  14.4610000
  59.9599408  92.2269408  13.2550000  45.3469408  97.8619408  13.5700000
  45.5059408  97.1419408  12.9600000  46.2199408  98.1279408  13.8590000
  43.9419408 117.7469408  11.2050000  43.6119408 117.6369408  12.0970000
  43.2129408 118.1429408  10.7270000  31.1999408 107.8119408  29.4490000
  31.9049408 108.0979408  30.0290000  31.6469408 107.3699408  28.7280000
  32.4759408 103.4329408  11.5170000  32.9669408 103.3179408  12.3310000
  32.3929408 104.3819408  11.4200000  34.0809408 100.9719408  10.1910000
  33.3579408 101.5829408  10.3280000  34.6869408 101.1519408  10.9110000
  32.4699408  92.2689408   9.4860000  31.9209408  93.0069408   9.2190000
  31.8819408  91.5139408   9.4670000  33.0199408 106.0899408  11.5960000
  32.9749408 106.1599408  12.5500000  33.1089408 106.9939408  11.2930000
  42.5739408 104.1909408  16.7410000  42.6879408 103.7449408  15.9010000
  43.3929408 104.6689408  16.8720000  45.7109408 102.0629408  28.0250000
  46.5479408 101.6029408  28.0980000  45.9129408 102.9669408  28.2670000
  39.4949408 105.9309408   3.8740000  39.7659408 105.7989408   4.7830000
  39.9059408 106.7569408   3.6190000  38.0449408 108.2839408  17.2700000
  37.8129408 107.5769408  17.8720000  38.2419408 107.8409408  16.4450000
  38.0199408  91.0509408  14.0630000  38.1869408  91.8039408  13.4960000
  38.5849408  91.1939408  14.8240000  42.3299408 113.4389408   4.0320000
  41.5709408 112.9229408   3.7610000  43.0749408 113.0059408   3.6160000
  33.8559408 118.2669408   6.1100000  33.5329408 119.1219408   5.8250000
  34.7399408 118.4389408   6.4320000  32.1229408 112.1309408  17.8600000
  32.8419408 111.8089408  17.3180000  32.3069408 113.0629408  17.9750000
  48.9909408  98.3469408   5.9690000  49.9089408  98.3779408   6.2400000
  48.8449408  97.4349408   5.7200000  35.8029408 106.0779408   4.3120000
  36.5949408 105.6419408   3.9980000  35.6179408 105.6609408   5.1540000
  45.6349408 101.6509408   3.7230000  46.4549408 101.1739408   3.8460000
  45.4639408 102.0589408   4.5730000  43.6209408 105.0579408  11.2560000
  42.8359408 105.3699408  11.7060000  43.5009408 105.3309408  10.3470000
  36.7349408 100.4089408  16.9120000  37.6709408 100.2119408  16.8740000
  36.3309408  99.5979408  17.2210000  39.1019408 109.7299408  22.1000000
  39.8669408 109.3959408  21.6300000  39.3469408 110.6199408  22.3550000
  38.8879408 110.4159408   1.5990000  38.2829408 109.7779408   1.9770000
  38.7719408 111.2019408   2.1330000  43.4439408  90.5639408   5.1250000
  44.2609408  90.5429408   5.6220000  43.7179408  90.5099408   4.2090000
  38.1309408 107.3219408   9.6840000  38.1119408 108.2399408   9.4110000
  37.9969408 107.3509408  10.6310000  41.8609408  98.8709408   0.8180000
  41.4729408  99.7019408   0.5460000  42.8049408  99.0259408   0.7920000
  44.0549408 110.7059408  19.8650000  43.1819408 110.5199408  20.2090000
  44.1139408 110.1809408  19.0660000  38.7819408 104.8269408  10.5120000
  37.8989408 104.6719408  10.8490000  38.7299408 105.6859408  10.0920000
  55.7759408 105.5769408  15.5950000  56.5949408 105.4519408  15.1160000
  55.8309408 104.9639408  16.3280000  44.7319408  95.0299408   6.7360000
  45.2879408  94.2539408   6.6670000  45.2679408  95.6689408   7.2060000
  44.7409408 108.3739408  28.8420000  45.0239408 109.2489408  28.5730000
  45.2609408 108.1829408  29.6220000  44.8019408 105.4929408  16.8610000
  44.9129408 106.3009408  16.3600000  45.6729408 105.3059408  17.2110000
  37.7279408 103.2519408  26.7680000  37.4999408 102.7349408  27.5410000
  38.4259408 103.8349408  27.0650000  48.8059408 108.6449408  29.5420000
  49.1739408 107.7629408  29.4910000  49.4979408 109.2139408  29.2050000
  57.4529408 102.4809408  12.6510000  56.9679408 101.6609408  12.7380000
  58.3159408 102.2169408  12.3320000  49.8039408 100.9529408   8.8190000
  50.7069408 101.2619408   8.7410000  49.2889408 101.5889408   8.3220000
  43.6759408 102.0399408   8.3110000  42.9579408 102.4469408   8.7970000
  43.3909408 101.1369408   8.1740000  34.4319408  89.9699408   9.1520000
  34.9539408  90.3289408   9.8690000  33.7079408  90.5879408   9.0490000
  33.1979408 105.2869408   7.9950000  32.5999408 105.4139408   7.2590000
  32.7259408 104.7069408   8.5910000  43.4919408 100.2479408  15.4210000
  44.1179408 100.9619408  15.5410000  44.0109408  99.5349408  15.0460000
  58.8019408  96.7519408  15.1170000  58.5949408  96.3399408  14.2790000
  57.9779408  97.1509408  15.3980000  36.3509408 102.5299408  20.8020000
  35.7639408 102.6359408  20.0530000  36.8079408 103.3679408  20.8690000
  32.1939408  92.4329408  15.0200000  31.9859408  92.0149408  14.1840000
  32.7589408  93.1699408  14.7850000  50.3539408  91.1919408  14.3940000
  51.2449408  91.0649408  14.0680000  50.3279408  92.1089408  14.6690000
  42.9529408 108.1909408   4.7110000  42.8259408 108.4779408   5.6150000
  43.8859408 108.3269408   4.5450000  41.2079408 103.2309408   9.6310000
  41.4929408 103.1859408  10.5430000  40.4689408 103.8389408   9.6400000
  35.2889408 106.5969408   1.2440000  36.1979408 106.4009408   1.4730000
  35.0949408 106.0109408   0.5130000  35.9609408  91.2959408  10.8390000
  36.7089408  91.8909408  10.8830000  35.2019408  91.8499408  11.0230000
  44.0369408  99.3019408  10.0320000  43.0859408  99.2279408   9.9500000
  44.3769408  98.5189408   9.5980000  43.8409408 105.9929408  19.9150000
  43.3829408 105.6059408  19.1690000  44.1529408 106.8389408  19.5910000
  47.9259408 103.8949408  14.1400000  46.9729408 103.9149408  14.2200000
  48.2449408 104.1439408  15.0080000  47.9639408  94.7779408   0.3340000
  47.0519408  95.0459408   0.4500000  48.1979408  94.3589408   1.1630000
  36.0819408 101.7559408   3.1260000  35.2619408 102.2489408   3.0890000
  36.7199408 102.3779408   3.4750000  50.7849408 101.9599408  17.6010000
  51.3309408 101.2469408  17.2700000  50.9109408 102.6709408  16.9720000
  46.0959408 100.7469408   9.5820000  45.3069408 100.3579408   9.9590000
  46.3329408 100.1619408   8.8630000  41.8799408 101.9409408   3.1400000
  41.5959408 101.9629408   4.0530000  42.2839408 101.0799408   3.0340000
  40.6029408 108.1769408  12.3180000  39.6709408 108.0139408  12.4610000
  40.6839408 109.1309408  12.3230000  46.8019408 110.5669408  15.9690000
  47.5409408 109.9729408  15.8380000  46.7199408 111.0359408  15.1380000
  36.3819408  93.8779408   6.2780000  36.8239408  94.1609408   7.0780000
  36.7769408  94.4079408   5.5850000  47.8219408 100.6709408  24.7140000
  47.0509408 100.2079408  24.3860000  48.5589408 100.2549408  24.2680000
  50.9929408 106.8169408   1.4860000  51.3499408 107.6909408   1.3270000
  50.4049408 106.9299408   2.2320000  57.1529408 103.0869408  16.5300000
  57.5009408 102.5009408  17.2020000  56.4709408 102.5749408  16.0950000
  58.4819408 100.9349408   9.6410000  58.8959408 101.1749408  10.4700000
  58.9019408 101.4979408   8.9910000  44.8989408 116.5689408   8.8670000
  44.8359408 116.8249408   9.7880000  44.8469408 115.6129408   8.8800000
  36.4319408  99.2409408   9.6680000  35.6539408  99.7959408   9.6110000
  36.1929408  98.4429408   9.1960000  47.9739408 100.1959408   4.3400000
  48.5639408 100.9399408   4.4650000  48.2259408  99.5729408   5.0210000
  44.5639408 101.3319408  12.5050000  45.3129408 101.9219408  12.4160000
  44.8419408 100.5249408  12.0710000  35.8949408 109.3489408  10.4970000
  35.2319408 109.5939408  11.1420000  35.4229408 108.8129408   9.8600000
  40.5329408  94.8369408  11.0850000  40.4469408  95.5079408  10.4070000
  41.3799408  95.0149408  11.4930000  38.3729408 113.4639408  13.1860000
  39.1639408 113.9339408  12.9220000  37.6539408 113.9979408  12.8490000
  38.0019408 103.8009408   4.2870000  38.6839408 104.4149408   4.0160000
  37.9259408 103.9279408   5.2330000  38.5919408 110.0079408  11.6570000
  37.6919408 109.6829408  11.6220000  38.5009408 110.9549408  11.7650000
  38.5059408 119.5499408   4.7200000  39.2599408 119.8159408   4.1930000
  38.6619408 119.9459408   5.5770000  34.0379408 117.2559408   9.9530000
  34.9729408 117.0479408   9.9550000  33.9999408 118.1869408   9.7350000
  47.8569408  95.7969408   6.3200000  48.7739408  95.6119408   6.1180000
  47.3679408  95.4069408   5.5960000  54.8209408  97.4299408   8.6100000
  54.9309408  96.7309408   7.9650000  55.4989408  98.0679408   8.3900000
  39.6499408 101.8419408   7.8760000  40.4039408 102.2779408   8.2730000
  39.2779408 101.3139408   8.5820000  47.8409408 101.3329408  21.0730000
  47.5779408 100.4969408  21.4570000  47.0239408 101.8229408  20.9800000
  46.4069408  93.6289408  19.0480000  47.1099408  94.2789408  19.0450000
  46.1969408  93.5069408  19.9740000  41.6449408  98.1269408  23.6070000
  41.9199408  97.4939408  24.2710000  41.9309408  98.9729408  23.9510000
  48.3389408  98.6359408  17.0160000  48.1949408  99.4509408  17.4970000
  49.2549408  98.4159408  17.1850000  37.8239408  99.7049408   1.9020000
  38.6989408  99.3949408   2.1340000  37.3699408  99.7939408   2.7400000
  37.4669408  99.5539408  26.4890000  37.0789408 100.1509408  27.1290000
  37.8689408 100.1279408  25.8380000  43.4879408  98.3599408  17.7820000
  42.5719408  98.4729408  18.0380000  43.7179408  99.1799408  17.3450000
  57.1329408 103.4899408   6.5760000  56.2129408 103.7239408   6.4540000
  57.5309408 104.2739408   6.9540000  35.3919408  99.8369408  21.5440000
  34.4879408 100.0839408  21.7380000  35.8819408 100.6569408  21.5990000
  45.6989408 103.6459408  21.5090000  44.9289408 104.2119408  21.4530000
  45.7449408 103.3939408  22.4310000  35.3759408  95.8509408   4.5400000
  35.9379408  96.5929408   4.3170000  35.1269408  96.0039408   5.4520000
  51.4999408 110.8909408  21.6630000  51.5299408 111.8449408  21.5890000
  51.2169408 110.5929408  20.7990000  46.1989408 102.7839408  24.3270000
  46.9519408 102.3809408  24.7590000  45.5079408 102.1229408  24.3830000
  50.3079408 102.6819408  21.5200000  49.5659408 102.7069408  22.1230000
  50.0339408 103.2229408  20.7790000  53.5869408 101.2759408   3.3410000
  52.6949408 101.6219408   3.3230000  54.1119408 101.9439408   2.9000000
  37.8799408 116.0279408  23.7110000  38.5289408 116.2299408  23.0370000
  37.0729408 115.8609408  23.2240000  48.4169408 104.7709408  20.7260000
  48.8399408 105.1919408  21.4750000  47.5249408 104.5919408  21.0240000
  44.9759408 105.1649408  23.9550000  45.6309408 105.7189408  23.5300000
  45.4869408 104.4979408  24.4130000  50.1269408 107.4139408  17.2570000
  50.8569408 108.0169408  17.1180000  50.2649408 107.0689408  18.1390000
  47.7229408  99.0149408  14.5310000  48.2079408  99.8399408  14.5330000
  47.7629408  98.7109408  15.4380000  47.0589408  94.2909408   3.6940000
  47.3229408  93.4279408   4.0130000  46.3329408  94.1129408   3.0950000
  42.1429408 103.0499408  23.4810000  42.7959408 103.1569408  22.7890000
  41.8279408 103.9369408  23.6530000  39.2999408  94.7489408  16.6790000
  38.4779408  94.7659408  16.1890000  39.0309408  94.7099408  17.5970000
  41.5199408 100.6549408  24.6330000  41.7749408 101.4879408  24.2350000
  40.7539408 100.3749408  24.1320000  58.8309408  97.2719408   2.2880000
  58.8699408  96.9779408   3.1980000  59.5399408  96.7969408   1.8530000
  42.8319408  96.0959408  25.8560000  42.2219408  96.7999408  26.0740000
  42.2899408  95.4319408  25.4300000  47.8369408  95.8009408  18.3520000
  48.7399408  95.6199408  18.0890000  47.7859408  96.7559408  18.3950000
  45.8959408 109.4069408  24.8660000  45.5879408 108.8379408  25.5710000
  46.8499408 109.3899408  24.9430000  42.3099408 107.8379408  18.4750000
  41.5999408 107.7869408  17.8350000  42.9599408 108.4099408  18.0670000
  51.5769408 100.0929408  13.5580000  50.8019408 100.5149408  13.9290000
  51.6999408 100.5189408  12.7100000  33.0429408 102.8729408  25.6090000
  33.5349408 102.7249408  24.8020000  32.7319408 102.0039408  25.8640000
  44.6799408 119.2389408  26.7010000  45.3729408 119.7719408  26.3100000
  44.3379408 119.7769408  27.4150000  35.6739408 113.6199408   0.0820000
  36.0949408 113.8689408   0.9050000  36.3839408 113.2649408  -0.4520000
  33.0279408 108.2679408   1.4330000  33.1569408 109.2159408   1.4620000
  33.8729408 107.9189408   1.1520000  35.6639408  98.1749408  18.2520000
  36.2629408  97.8789408  18.9380000  35.1889408  97.3859408  17.9920000
  35.9109408  96.2639408  23.1760000  35.8639408  95.3079408  23.1610000
  35.2579408  96.5469408  22.5370000  33.5549408 102.7819408   3.2750000
  32.7219408 102.4139408   3.5720000  33.4619408 103.7249408   3.4110000
  42.0799408  92.2879408  25.6550000  41.8949408  92.3419408  26.5920000
  41.6749408  93.0719408  25.2840000  33.4729408  99.6029408  27.1470000
  33.7089408  98.7169408  26.8730000  34.0979408  99.8149408  27.8400000
  50.1159408  93.8369408  15.0270000  50.6079408  94.5009408  14.5440000
  49.2639408  93.8059408  14.5920000  39.1499408 119.6889408  22.5040000
  39.9349408 120.2339408  22.5540000  39.1679408 119.3219408  21.6200000
  40.2899408 106.9219408  26.2360000  40.6129408 106.3839408  25.5120000
  40.5349408 107.8159408  25.9980000  35.6959408  96.5609408  27.9650000
  36.2729408  96.7839408  27.2350000  36.2299408  96.7069408  28.7460000
  39.0229408 100.0999408  23.4030000  38.3649408 100.6929408  23.7660000
  38.5369408  99.3039408  23.1870000  32.6359408  99.1879408  12.6550000
  32.1249408  99.8089408  13.1730000  31.9839408  98.6069408  12.2650000
  40.1199408  91.7629408   3.4120000  39.5699408  91.8339408   2.6310000
  40.9739408  92.0939408   3.1340000  45.5569408 115.5499408  26.2860000
  44.8219408 114.9969408  26.0220000  46.0899408 115.6339408  25.4950000
  37.1549408  97.1399408  25.5410000  36.6739408  97.0259408  24.7220000
  37.2739408  98.0859408  25.6200000  44.3109408 100.8199408  25.0000000
  43.4729408 100.6859408  24.5580000  44.6099408  99.9379408  25.2200000
  54.7679408  96.0699408  17.1460000  53.8289408  96.0299408  16.9640000
  55.1819408  95.7409408  16.3480000  35.1569408 101.4689408  15.1180000
  34.3929408 101.0489408  15.5120000  35.9069408 101.0229408  15.5130000
  46.3049408 107.8459408  18.6500000  46.4699408 108.5339408  18.0040000
  46.6669408 107.0539408  18.2540000  41.4229408  91.4139408  22.3640000
  41.7979408  91.2949408  23.2370000  42.1729408  91.6199408  21.8060000
  34.3739408  92.0349408  22.5920000  35.0449408  92.5869408  22.9950000
  33.7539408  92.6539408  22.2080000  37.8019408 106.5439408   7.0640000
  37.6149408 105.6139408   7.1890000  37.8329408 106.9049408   7.9500000
  39.5459408 104.8449408  27.9910000  39.9689408 105.6099408  27.6000000
  39.0599408 105.1949408  28.7380000  31.7749408  90.6259408  28.9360000
  32.5749408  91.0719408  29.2140000  31.1079408  91.3129408  28.9280000
  42.7309408 102.2139408  18.9580000  42.2289408 101.4239408  18.7610000
  42.6519408 102.7509408  18.1690000  33.0389408 117.9559408  28.5700000
  33.2659408 117.7619408  27.6600000  32.9049408 118.9029408  28.5870000
  38.8229408 109.2789408  28.8730000  39.0599408 108.7649408  29.6450000
  38.2279408 109.9509408  29.2050000  40.8119408  94.5099408  24.7060000
  39.9129408  94.5729408  25.0290000  40.7219408  94.4639408  23.7540000
  38.1589408 101.4079408  29.5170000  39.1069408 101.5379408  29.5250000
  37.9899408 100.8219408  30.2550000  37.4109408  98.2469408  22.5390000
  37.0039408  97.3889408  22.6570000  36.8979408  98.6629408  21.8460000
  35.9589408  92.4859408  29.6520000  35.4029408  92.4139408  30.4270000
  35.4749408  92.0279408  28.9650000  48.8269408  93.5309408  22.3500000
  48.8589408  92.6169408  22.6340000  49.3369408  93.5479408  21.5400000
  43.0339408 104.4019408   3.2410000  43.4299408 104.6769408   2.4150000
  42.6019408 103.5729408   3.0360000  44.6579408  91.6439408  24.3280000
  45.2989408  91.5509408  25.0330000  43.8909408  92.0299408  24.7510000
  39.2199408 100.8319408  20.8010000  38.2959408 100.9889408  20.6070000
  39.2279408 100.5439408  21.7140000  38.1889408 107.1529408  23.5900000
  39.0689408 107.0679408  23.9560000  37.9749408 108.0809408  23.6910000
  37.2109408  98.0059408   5.3860000  36.6419408  98.7579408   5.5510000
  37.9689408  98.1489408   5.9520000  60.1159408  98.1649408  11.4220000
  60.1929408  97.2509408  11.1470000  59.2939408  98.4639408  11.0340000
  51.0649408  99.6399408   2.0140000  51.5329408  99.0169408   2.5690000
  51.5449408  99.6309408   1.1850000  34.8949408 108.8529408   6.4910000
  35.2919408 109.6979408   6.7040000  35.4089408 108.5259408   5.7530000
  30.8779408 119.1329408   1.2170000  31.1779408 119.6449408   0.4660000
  31.0379408 118.2229408   0.9670000  36.9089408  94.5699408  15.4710000
  36.4269408  95.1219408  14.8560000  36.2819408  94.3849408  16.1700000
  45.2509408  98.2789408  25.3330000  44.5369408  97.6459408  25.4040000
  45.7219408  98.2039408  26.1630000  46.1519408 106.8349408   6.9130000
  45.4469408 106.5409408   6.3350000  45.7099408 107.0769408   7.7270000
  31.6169408  99.6609408  25.2060000  32.3259408  99.5369408  25.8370000
  32.0529408  99.9679408  24.4120000  45.4429408  90.1609408  13.2290000
  46.1079408  89.5109408  13.4580000  45.5879408  90.8799408  13.8430000
  54.0269408 109.3799408  21.4100000  54.2849408 108.4959408  21.6720000
  53.1719408 109.5119408  21.8210000  44.3959408 108.1949408  10.7400000
  44.3709408 108.1429408  11.6950000  44.2869408 107.2889408  10.4480000
  35.1149408  94.0059408  26.8730000  34.1869408  94.1409408  26.6820000
  35.3489408  94.7299408  27.4530000  34.5679408 102.7609408  23.3450000
  34.5269408 103.7069408  23.4870000  34.8839408 102.6679408  22.4460000
  51.5419408  92.2789408  24.3060000  51.1949408  92.1159408  23.4290000
  51.4429408  91.4439408  24.7630000  44.6329408 113.1429408  10.1660000
  44.8209408 113.6079408   9.3500000  44.7559408 112.2189408   9.9490000
  45.3159408 102.0549408  16.3340000  44.9349408 102.8129408  16.7780000
  46.1729408 101.9419408  16.7450000  52.2929408 107.8109408  23.8080000
  52.1829408 107.0259408  24.3450000  52.7159408 108.4419408  24.3890000
  39.7159408 107.2639408   0.6440000  40.4809408 106.8889408   0.2080000
  40.0779408 107.7609408   1.3780000  39.6429408 117.8269408  24.9720000
  39.4569408 117.5769408  24.0670000  40.3899408 118.4219408  24.9080000
  37.2109408 101.8149408  24.3940000  36.3699408 102.1359408  24.0660000
  37.5599408 102.5409408  24.9100000  30.1669408  98.8079408  20.3710000
  29.8829408  98.0049408  20.8070000  29.9809408  99.5029408  21.0020000
  41.3649408  99.9299408  18.7550000  40.7509408  99.2719408  18.4300000
  41.2129408  99.9549408  19.7000000  44.3869408 110.9349408   1.0510000
  43.5169408 111.2199408   0.7720000  44.8489408 110.7409408   0.2360000
  40.7769408  99.9669408  15.3550000  41.7099408 100.1599408  15.2610000
  40.7469408  99.1889408  15.9110000  33.5569408  97.1909408  26.0440000
  34.3569408  96.6719408  26.1280000  33.4109408  97.2549408  25.1000000
  49.8279408 105.7489408  13.0870000  50.5869408 105.7009408  13.6680000
  49.2939408 104.9909408  13.3260000  30.9909408 104.1799408  29.6390000
  31.5389408 104.9439408  29.4570000  30.9489408 104.1369408  30.5940000
  41.3459408 103.1939408  28.8840000  40.7059408 103.7409408  28.4290000
  41.9039408 102.8469408  28.1880000  58.4329408  91.3169408  17.7720000
  58.3759408  90.3929408  18.0160000  58.3789408  91.7879408  18.6040000
  46.9629408 106.6139408  22.6300000  46.8069408 107.5369408  22.8310000
  47.8629408 106.5879408  22.3060000  56.9299408 101.9079408   1.8610000
  56.9209408 102.4829408   2.6270000  57.6339408 101.2839408   2.0360000
  45.8339408  93.3109408   1.4930000  46.3929408  92.5349408   1.4550000
  45.4889408  93.4019408   0.6050000  30.8749408  93.4179408  23.9600000
  30.5559408  92.5409408  23.7490000  31.6379408  93.5389408  23.3940000
  43.8929408 109.7199408  17.2500000  43.8199408 110.5249408  16.7370000
  44.7049408 109.3139408  16.9450000  40.5189408  97.1779408  15.9270000
  40.5439408  96.3239408  16.3590000  40.1409408  96.9999408  15.0660000
  45.9109408 117.6449408  20.9300000  45.4609408 116.9469408  20.4540000
  45.2979408 117.8989408  21.6190000  45.5579408  94.1889408  26.1150000
  44.8629408  94.8469408  26.1260000  45.7909408  94.1009408  25.1910000
  47.6369408 120.0739408  22.6510000  47.4279408 119.3739408  22.0330000
  47.3079408 119.7569408  23.4920000  39.3779408  98.0839408  28.2570000
  38.8019408  98.1769408  27.4980000  40.1869408  98.5259408  28.0000000
  37.9469408  97.0969408  19.7360000  37.9239408  96.1409408  19.7090000
  38.7869408  97.3059408  20.1460000  46.8989408 119.9439408   5.6780000
  46.7499408 119.2089408   6.2740000  46.6159408 119.6199408   4.8230000
  39.8299408 117.2289408   5.4010000  38.9329408 117.4469408   5.1470000
  40.3679408 117.5429408   4.6740000  48.4289408 119.3959408  28.3290000
  47.9429408 118.5779408  28.2260000  48.7299408 119.3839408  29.2380000
  31.1219408  96.0539408   9.6410000  30.6489408  96.3209408   8.8530000
  31.9209408  96.5809408   9.6320000  41.1519408 112.9069408  20.7830000
  41.1849408 111.9589408  20.9060000  40.5209408 113.0349408  20.0740000
  41.0869408 115.7069408   7.3250000  40.8939408 116.1889408   8.1280000
  40.7599408 116.2699408   6.6230000  32.6749408 108.7829408  10.9760000
  33.1839408 109.3299408  11.5740000  33.0549408 108.9529408  10.1140000
  43.9669408 105.5319408   5.7910000  44.1179408 104.5939408   5.6770000
  43.3829408 105.7699408   5.0710000  32.1679408  94.6769408  12.0900000
  31.6919408  95.0179408  11.3330000  31.8439408  95.1909408  12.8290000
  39.7219408 118.0699408   8.6160000  39.4219408 118.0619408   7.7080000
  39.1469408 118.6979408   9.0530000  41.7279408 110.3879408  21.2710000
  41.6209408 109.5149408  20.8940000  42.3419408 110.2629408  21.9960000
  58.0529408 115.8899408  12.2050000  58.2489408 116.7309408  12.6180000
  57.0989408 115.8779408  12.1250000  43.8599408  96.7389408   2.4700000
  43.0679408  97.2019408   2.1940000  43.5509408  96.0939408   3.1060000
  34.9999408 119.5199408  18.2440000  35.1339408 119.6689408  19.1800000
  34.6149408 120.3359408  17.9240000  40.5059408 109.8669408   6.1100000
  39.8559408 109.5139408   5.5030000  39.9949408 110.3779408   6.7380000
  43.0909408  95.1259408   4.6640000  43.6829408  95.1169408   5.4160000
  42.3979408  94.5079408   4.8970000  33.3269408 114.6049408  19.3680000
  34.2059408 114.2289408  19.3230000  33.4169408 115.4729408  18.9750000
  30.0379408 111.4779408   4.6990000  30.9309408 111.1549408   4.5830000
  29.4899408 110.8369408   4.2450000  45.7609408 115.8819408   4.7460000
  45.6409408 115.0999408   4.2060000  44.9199408 115.9989408   5.1890000
  44.2179408 110.3289408  13.1910000  44.4609408 111.2159408  12.9250000
  45.0449408 109.9189408  13.4450000  47.6079408 111.4719408  21.4500000
  47.1129408 112.1989408  21.8280000  47.2049408 110.6879408  21.8230000
  42.8429408 114.9729408  21.9030000  42.4879408 114.2539408  21.3800000
  43.3269408 115.5089408  21.2750000  34.6779408 112.4899408  16.5850000
  35.2769408 113.2359408  16.6160000  35.2109408 111.7439408  16.8610000
  35.7979408 111.3969408   6.7650000  36.4539408 111.7799408   7.3470000
  34.9819408 111.4349408   7.2640000  47.4849408 117.6719408   7.7400000
  46.6389408 117.2889408   7.9700000  47.8719408 117.0489408   7.1250000
  32.3099408 108.7869408   5.5240000  31.6629408 108.6259408   6.2120000
  33.1549408 108.6519408   5.9530000  44.3059408 118.7819408   7.3720000
  44.7559408 118.1469408   7.9280000  43.9669408 118.2639408   6.6420000
  54.3189408 114.7159408  14.1060000  54.8969408 113.9829408  13.8980000
  54.5489408 115.3919408  13.4680000  36.4959408 108.9039408   2.3800000
  35.9039408 109.5189408   1.9470000  35.9969408 108.0889408   2.4350000
  35.8519408 117.3879408  29.9390000  35.2559408 117.5509408  29.2070000
  35.3619408 116.8089408  30.5230000  46.4369408 109.0669408  21.2430000
  46.5039408 108.3559408  20.6060000  45.6939408 109.5899408  20.9420000
  37.2649408 113.0889408   3.3920000  37.5729408 113.8519408   2.9040000
  37.6459408 113.1919408   4.2640000  40.3759408 113.4779408  17.1180000
  39.6279408 113.2069408  17.6500000  40.5139408 112.7509408  16.5100000
  39.1669408  95.4379408   5.7480000  38.8509408  95.6709408   4.8750000
  39.4189408  94.5179408   5.6750000  34.2729408 110.1469408  12.5690000
  33.8439408 110.9559408  12.8460000  35.0339408 110.0699408  13.1450000
  33.2469408 105.4839408   3.2100000  33.6359408 106.1419408   2.6340000
  33.7999408 105.4919408   3.9910000  34.1789408 107.7809408   8.9290000
  34.2309408 108.1619408   8.0530000  33.5919408 107.0319408   8.8310000
  41.1639408 119.3629408  14.0990000  41.9599408 119.0219408  14.5070000
  40.8289408 120.0059408  14.7250000  41.2709408 119.4239408   0.7540000
  41.1439408 119.1009408  -0.1380000  40.7259408 120.2099408   0.8040000
  40.1639408 104.3359408  17.9330000  39.7059408 103.4989408  17.8530000
  40.9369408 104.2409408  17.3770000  36.7049408 114.8669408   7.0240000
  37.3139408 114.3839408   6.4660000  36.0519408 115.2189408   6.4190000
  30.7809408 107.7779408   3.0700000  31.3749408 107.8329408   3.8190000
  31.3059408 108.0689408   2.3250000  36.9129408 116.0559408  13.0170000
  36.7609408 116.9919408  13.1450000  37.8609408 115.9539408  13.1010000
  39.9689408 115.5049408  11.5150000  40.0609408 116.2039408  12.1630000
  39.5309408 115.9229408  10.7730000  42.8559408  92.0519408   9.6080000
  43.6339408  91.5559408   9.8640000  42.6389408  92.5739408  10.3800000
  40.9059408 112.2719408   1.9450000  40.8709408 111.3879408   1.5790000
  40.4339408 112.8129408   1.3120000  30.6149408 104.7429408   2.4330000
  29.9859408 105.4539408   2.5520000  31.4659408 105.1429408   2.6100000
  45.8529408 113.8829408   7.9390000  45.9139408 113.7729408   6.9900000
  46.7569408 114.0099408   8.2250000  37.6779408 105.6369408  18.2270000
  37.3809408 105.6059408  19.1360000  38.4549408 105.0779408  18.2080000
  34.3649408 112.5619408  10.9050000  33.8259408 113.0119408  11.5560000
  35.0559408 113.1889408  10.6910000  41.6299408 113.2589408  11.2250000
  41.9139408 113.2529408  10.3110000  40.9499408 113.9319408  11.2610000
  33.3079408 112.3489408  14.1740000  33.6449408 113.1049408  13.6930000
  33.8179408 112.3319408  14.9840000  50.0859408  93.0319408   1.4180000
  50.4329408  92.3479408   0.8450000  49.2249408  92.7079408   1.6830000
  58.1769408  92.4219408  20.1510000  57.3749408  92.2089408  20.6290000
  58.4289408  93.2859408  20.4760000  49.2209408 118.9019408   9.3070000
  48.6819408 119.2899408   9.9960000  48.5979408 118.6619408   8.6210000
  30.9919408  89.9949408  25.7370000  31.7769408  90.0659408  25.1940000
  31.2419408  90.3889408  26.5730000  30.7819408 106.6869408  15.9170000
  30.1779408 106.2529408  16.5200000  30.3069408 107.4619408  15.6180000
  36.7389408 114.1779408   9.9850000  36.8389408 115.0859408  10.2700000
  36.8689408 114.2079408   9.0370000  40.4329408  91.4439408  15.7220000
  40.5989408  91.4719408  16.6650000  40.7079408  92.3039408  15.4050000
  41.3089408 109.2199408  25.3400000  42.0399408 109.3309408  24.7320000
  41.4799408 109.8519408  26.0380000  33.3309408 109.3729408  18.2010000
  32.4419408 109.5659408  18.5000000  33.8949408 109.6769408  18.9110000
  56.3379408  98.5209408  14.7070000  55.9319408  99.3879408  14.7270000
  55.5999408  97.9109408  14.7000000  33.1059408 111.9459408   8.1800000
  33.4189408 112.7029408   8.6760000  32.1519408 112.0229408   8.2010000
  45.4369408 113.2539408  20.0090000  46.0059408 113.1119408  19.2530000
  45.0009408 112.4129408  20.1430000  37.0619408 111.4499408   9.2770000
  37.2629408 112.2119408   9.8210000  36.5489408 110.8769408   9.8470000
  42.4839408 116.0199408  29.2340000  42.1589408 115.9759408  30.1330000
  41.7009408 116.1619408  28.7020000  42.0659408 118.8869408   9.7040000
  41.2279408 118.5389408   9.3980000  42.5209408 119.1529408   8.9050000
  41.2699408 116.0949408  16.5260000  41.8939408 116.0249408  15.8040000
  41.2699408 115.2259408  16.9290000  40.8659408 108.4719408   2.7640000
  40.6719408 109.4039408   2.8690000  41.5619408 108.2989408   3.3990000
  43.6439408  90.4429408   1.8470000  42.8629408  90.2199408   1.3410000
  43.6489408  91.3999408   1.8730000  33.1739408  90.5829408   4.5740000
  34.1289408  90.6499408   4.5680000  32.8779408  91.4079408   4.9580000
  39.4209408 111.4549408   7.9740000  38.8169408 111.4819408   8.7160000
  40.2109408 111.8929408   8.2920000  58.8549408 113.9129408  10.4620000
  58.1329408 113.2899408  10.3720000  58.5459408 114.5469408  11.1090000
  39.8059408 105.8759408  21.7940000  38.8959408 106.1509408  21.9020000
  39.7489408 104.9669408  21.5000000  37.9939408 111.3219408  14.6600000
  38.8919408 111.3319408  14.9910000  37.9779408 112.0019408  13.9870000
  55.4639408 115.1709408   8.5830000  54.5769408 115.4189408   8.3240000
  55.9009408 114.9499408   7.7600000  54.4759408 110.8279408  19.0240000
  55.3199408 111.0919408  18.6570000  54.7019408 110.2359408  19.7420000
  38.2409408 109.7249408  25.2630000  38.0479408 109.1849408  26.0300000
  39.1959408 109.7239408  25.2030000  42.9509408  91.3049408  12.5350000
  43.5739408  90.6049408  12.7320000  42.1069408  90.9639408  12.8300000
  59.8429408 116.8959408   8.9490000  59.2369408 116.1979408   8.6960000
  60.4319408 116.4839408   9.5810000  43.2739408 116.0209408   5.5640000
  43.0779408 115.8549408   6.4860000  42.5129408 115.6839408   5.0920000
  43.9679408 113.1959408  12.7510000  43.0609408 113.1179408  12.4530000
  44.4749408 113.3119408  11.9480000  37.9659408 113.2009408  24.6000000
  38.6309408 112.7009408  24.1270000  37.9549408 114.0549408  24.1660000
  58.8189408 118.9629408  19.5480000  59.3499408 118.7979408  20.3270000
  57.9169408 118.8389408  19.8420000  37.1999408  92.1849408  19.7970000
  37.7519408  91.4189408  19.6400000  36.4489408  91.8439408  20.2840000
  46.6659408 102.2829408   1.1970000  46.1439408 103.0379408   0.9240000
  46.2319408 101.9649408   1.9890000  41.4439408 105.8639408  23.9440000
  42.0879408 106.3889408  23.4680000  40.7859408 105.6379408  23.2870000
  44.5009408 102.8519408   5.8720000  44.3729408 102.6739408   6.8040000
  43.6179408 102.8409408   5.5020000  40.8959408 109.7499408   9.9370000
  40.1039408 109.8069408  10.4710000  41.6099408 109.9329408  10.5480000
  49.0259408 104.6979408   5.6060000  49.1789408 105.5409408   6.0320000
  48.8219408 104.0999408   6.3250000  36.7689408 118.4729408  14.2330000
  37.3599408 119.2059408  14.4070000  35.9639408 118.6979408  14.6990000
  39.7699408 112.6009408  26.6800000  39.2829408 112.6389408  25.8560000
  39.7329408 113.4939408  27.0220000  57.3529408  90.3099408  12.8330000
  57.5099408  89.6729408  13.5300000  57.9369408  91.0399408  13.0390000
  42.1129408 108.3489408   7.7370000  41.7449408 108.5769408   8.5910000
  41.5649408 108.8179408   7.1070000  54.6629408 109.5749408  12.4850000
  54.9049408 108.8659408  13.0800000  54.1909408 109.1409408  11.7740000
  31.4539408 119.7109408  15.8930000  31.4329408 120.6619408  16.0040000
  32.2849408 119.5399408  15.4500000  36.8329408 110.5419408  17.8900000
  37.4509408 109.8449408  17.6710000  36.2749408 110.1639408  18.5700000
  55.2199408 104.8659408   1.3530000  55.3179408 104.0859408   0.8060000
  54.4369408 105.3009408   1.0120000  48.8679408 117.6099408   3.3490000
  49.7269408 117.3279408   3.6620000  48.2529408 117.2769408   4.0020000
  38.3579408  94.1779408   1.8600000  38.4489408  94.8209408   2.5630000
  37.5369408  93.7239408   2.0540000  41.2019408 118.7629408   3.4690000
  41.2119408 119.5939408   3.9450000  41.6049408 118.9659408   2.6240000
  36.1329408 113.5059408  20.1000000  36.3269408 113.2889408  19.1880000
  36.9599408 113.8419408  20.4480000  40.2109408 118.4339408  11.9620000
  41.0079408 118.2959408  11.4500000  40.5229408 118.6039408  12.8510000
  47.3879408 112.3639408  27.4260000  47.6389408 112.8729408  28.1970000
  48.1209408 112.4709408  26.8190000  31.6809408 118.4499408   7.5820000
  32.3499408 117.9409408   7.1260000  30.8959408 117.9039408   7.5440000
  55.9239408 112.7609408  13.2040000  55.7279408 112.7439408  12.2670000
  56.0819408 111.8459408  13.4340000  49.3099408 116.6769408  14.0320000
  49.6109408 116.8749408  14.9190000  49.3619408 115.7229408  13.9680000
  33.3539408 114.7089408   9.0660000  33.7559408 115.5449408   9.3010000
  32.5179408 114.9489408   8.6650000  31.4129408 116.7549408   0.3960000
  32.1889408 117.0679408  -0.0690000  31.2349408 115.8959408   0.0140000
  59.6089408 117.8679408  15.3230000  60.1049408 117.1339408  14.9590000
  60.2649408 118.5469408  15.4810000  52.3659408 104.6299408   8.6880000
  51.7399408 104.6659408   9.4110000  53.1379408 105.0919408   9.0160000
  31.5119408 109.0599408  13.6060000  30.8219408 109.4449408  13.0660000
  32.0049408 108.5029408  13.0030000  33.9449408 116.8669408  18.1460000
  33.7629408 116.8199408  17.2080000  34.4529408 117.6719408  18.2510000
  43.2799408 112.0519408  15.6120000  42.3279408 111.9589408  15.6370000
  43.5199408 111.8259408  14.7140000  42.9559408 111.3659408   6.3640000
  43.4859408 111.8059408   5.6990000  42.4029408 110.7609408   5.8690000
  33.4409408  96.1809408   1.9050000  34.0029408  96.8479408   1.5100000
  33.9759408  95.7989408   2.6010000  47.0119408 113.5979408   0.0990000
  47.4669408 114.3679408   0.4400000  46.1409408 113.9179408  -0.1370000
  37.1949408 112.4749408  28.1130000  36.6079408 112.3649408  27.3650000
  38.0739408 112.3999408  27.7400000  48.2589408 102.5979408   7.4360000
  47.7069408 101.9699408   6.9700000  47.6589408 103.0499408   8.0290000
  30.1369408  93.5589408   5.8370000  29.9919408  92.6449408   5.5950000
  30.0729408  93.5669408   6.7920000  45.3399408 110.8529408  28.1340000
  44.7079408 111.5289408  27.8920000  46.1799408 111.1839408  27.8140000
  49.9039408  90.2909408  26.3150000  49.3069408  90.0529408  27.0240000
  50.2959408  91.1169408  26.5980000  56.3759408 113.1479408  22.1470000
  55.9069408 113.8409408  21.6830000  57.2419408 113.1299408  21.7400000
  38.6959408  94.9359408  26.2190000  38.5659408  94.8349408  27.1620000
  37.9669408  95.4869408  25.9330000  35.0549408  90.9999408  27.6170000
  35.2369408  91.8089408  27.1400000  34.9239408  90.3429408  26.9330000
  42.6159408 112.0489408  24.5270000  42.7129408 111.7699408  25.4380000
  43.1399408 111.4229408  24.0270000  34.7479408 116.4299408   2.0810000
  34.8309408 115.7089408   2.7050000  33.9279408 116.8609408   2.3190000
  39.2759408 116.4629408  14.7030000  39.7309408 116.2569408  15.5190000
  39.1089408 117.4049408  14.7520000  53.3719408 119.3539408  16.9710000
  53.3079408 118.3989408  16.9860000  52.9949408 119.6059408  16.1290000
  46.2559408 113.4489408  22.4580000  45.9049408 113.5529408  21.5740000
  45.4959408 113.5559408  23.0320000  36.9949408 105.9949408  20.7340000
  36.4209408 105.7369408  21.4560000  36.9939408 106.9519408  20.7580000
  46.4109408 117.9309408  16.0400000  46.7929408 118.4529408  16.7440000
  46.9819408 118.0879408  15.2870000  44.1419408 114.1589408  24.0840000
  43.6309408 113.3779408  24.2940000  43.5819408 114.6599408  23.4910000
  43.5379408 106.9969408  22.3460000  44.1009408 106.3869408  22.8230000
  43.4289408 106.5979408  21.4830000  43.4829408 109.4799408  23.5240000
  43.6019408 108.6709408  23.0260000  44.1959408 109.4769408  24.1620000
  35.5179408 110.8639408   0.6340000  34.6129408 110.9029408   0.3240000
  35.8689408 111.7369408   0.4600000  33.9199408 113.7329408  27.9040000
  33.7749408 112.7969408  27.7640000  34.6069408 113.7729408  28.5690000
  51.0999408 117.1969408  26.2780000  50.7519408 117.3389408  25.3980000
  51.3499408 118.0699408  26.5810000  44.6979408 115.7839408  19.6430000
  44.8279408 115.7939408  18.6940000  44.6369408 114.8559408  19.8670000
  41.6579408 119.4879408  25.1230000  41.5199408 120.2759408  25.6490000
  42.5939408 119.3049408  25.2060000  35.6269408 115.5319408  22.0670000
  36.1349408 115.9269408  21.3580000  35.2669408 114.7309408  21.6870000
  38.4599408  92.5539408  24.9290000  38.0919408  91.8119408  25.4080000
  38.4689408  93.2689408  25.5650000  33.5699408 110.9729408  27.9310000
  32.6959408 110.8599408  27.5580000  34.1639408 110.6609408  27.2500000
  54.5209408 107.0009408  22.3890000  55.1209408 106.3069408  22.6620000
  53.6929408 106.7869408  22.8180000  41.6979408 110.0789408  29.7730000
  40.8099408 109.8989408  29.4640000  42.0089408 109.2409408  30.1130000
  40.6369408 111.0749408  15.7480000  41.0509408 110.3259408  16.1760000
  40.8889408 110.9959408  14.8280000  37.8009408 107.6069408  26.9660000
  37.9509408 108.0929408  27.7770000  38.6709408 107.3129408  26.6970000
  44.6939408 117.6009408  29.4540000  43.7959408 117.3609408  29.6810000
  44.6029408 118.1929408  28.7070000  44.6019408 118.8039408  23.5100000
  45.1489408 118.3629408  24.1610000  44.6489408 119.7299408  23.7450000
  38.0119408 115.6129408  29.1090000  37.3469408 115.9979408  29.6800000
  37.5689408 115.4959408  28.2690000  47.2359408 115.8399408  24.2300000
  47.9919408 115.7569408  23.6490000  46.6439408 115.1399408  23.9550000
  46.3829408 115.0279408  16.5230000  45.9809408 114.9789408  15.6560000
  46.6939408 115.9299408  16.5930000  29.8979408 115.6919408  22.9550000
  29.7849408 114.8959408  23.4740000  30.8379408 115.7319408  22.7780000
  38.7329408 115.2859408   2.7840000  39.4529408 115.3559408   2.1580000
  38.2929408 116.1349408   2.7390000  56.7709408  93.6649408  22.7270000
  56.7729408  92.8369408  23.2070000  57.3549408  94.2339408  23.2270000
  35.4859408 107.0279408  25.4590000  35.3769408 106.1209408  25.7470000
  36.3439408 107.2849408  25.7970000  39.9189408  93.5539408  21.8240000
  39.1149408  93.4609408  22.3350000  40.5089408  92.8899408  22.1800000
  41.3379408 118.9519408  27.8980000  40.3879408 118.9459408  27.7800000
  41.6909408 118.7969408  27.0220000  38.4839408 102.6569408  12.7750000
  38.7579408 103.2109408  12.0450000  39.2489408 102.1129408  12.9640000
  34.8689408 112.0059408   4.4930000  35.4839408 112.3369408   3.8380000
  35.3879408 111.9349408   5.2950000  31.1839408 113.8679408   2.2820000
  31.7039408 113.3719408   1.6500000  31.6219408 113.7219408   3.1200000
  31.2759408 110.9209408  22.3260000  31.5259408 110.2529408  21.6880000
  31.9619408 111.5849408  22.2600000  37.4129408 116.2019408  20.0570000
  37.4249408 116.6489408  19.2110000  38.2419408 116.4469408  20.4690000
  40.8449408  92.1909408  28.1290000  39.9649408  91.9919408  27.8090000
  40.7209408  92.4099408  29.0520000  42.1609408 111.0939408  27.1720000
  41.3539408 111.5889408  27.0280000  42.4389408 111.3399408  28.0540000
  51.6459408 115.8579408  19.2480000  51.8839408 115.4889408  18.3980000
  51.1379408 115.1669408  19.6750000  31.9099408 116.0429408  26.4380000
  31.0299408 116.3809408  26.2760000  31.8099408 115.4669408  27.1960000
  56.5009408 113.4099408   3.8900000  57.2679408 113.2959408   3.3290000
  56.1529408 114.2679408   3.6490000  42.1069408 118.3369408  22.1520000
  42.8629408 118.3479408  22.7390000  41.9139408 119.2609408  21.9920000
  36.9049408 119.6589408  24.4020000  37.4049408 119.1249408  25.0190000
  37.5369408 119.8999408  23.7250000  45.8789408  92.1039408  21.6990000
  45.5149408  91.9559408  22.5720000  46.7829408  91.7959408  21.7610000
  38.8949408 111.6709408  19.8570000  38.2309408 111.5909408  19.1720000
  38.9859408 110.7849408  20.2080000  49.3409408 109.3989408  20.3370000
  49.0289408 109.1119408  19.4790000  48.5439408 109.5879408  20.8320000
  44.5349408  93.3569408  28.7370000  44.1719408  92.4879408  28.5610000
  45.0539408  93.5609408  27.9590000  47.1019408 105.7249408  25.9070000
  47.7749408 106.4049408  25.8650000  46.2939408 106.1989408  26.1020000
  43.0649408  91.5539408  20.0000000  43.9649408  91.6039408  20.3230000
  42.9399408  90.6309408  19.7800000  38.2529408  91.2669408  28.1430000
  37.5959408  91.4079408  28.8250000  38.1889408  90.3329408  27.9390000
  40.1359408 112.0139408  23.1660000  40.2959408 112.4989408  22.3560000
  40.9959408 111.9489408  23.5810000  48.4869408  98.0279408   1.6070000
  49.1999408  98.3819408   2.1380000  48.0509408  98.7999408   1.2450000
  45.1319408 107.2609408  26.3960000  45.2409408 107.6919408  27.2440000
  44.5449408 106.5269408  26.5740000  37.2789408 116.4109408  26.2950000
  36.3539408 116.2849408  26.0820000  37.7199408 116.4259408  25.4460000
  44.4529408 110.9099408   3.7780000  44.3679408 110.7669408   2.8350000
  45.0229408 110.2019408   4.0770000  37.1399408 117.5469408  17.6840000
  36.8289408 117.2759408  16.8200000  36.5409408 118.2459408  17.9460000
  55.0939408  93.0129408  25.4040000  54.7599408  92.6939408  24.5660000
  55.6369408  92.2969408  25.7340000  45.7979408 118.7229408   3.2530000
  45.6619408 117.7969408   3.0530000  45.1299408 119.1799408   2.7420000
  39.0859408  91.1759408   1.1750000  38.4019408  90.5059408   1.1510000
  38.6729408  91.9539408   0.8020000  38.0329408 119.1679408  10.5370000
  38.6119408 118.8459408  11.2270000  37.5109408 119.8489408  10.9610000
  42.8329408 106.8609408  13.8650000  42.4649408 105.9809408  13.9370000
  42.1939408 107.3459408  13.3420000  38.4229408 118.5869408  27.7970000
  38.0969408 118.0029408  27.1120000  38.0209408 118.2599408  28.6020000
  43.1219408 105.2349408  26.3590000  42.9999408 104.2859408  26.3360000
  43.2029408 105.4879408  25.4390000  35.5019408  90.1759408  20.8970000
  35.1519408  90.8029408  21.5300000  35.3639408  89.3209408  21.3060000
  44.6709408  97.7959408   5.3550000  45.3629408  97.6749408   4.7050000
  44.3999408  96.9069408   5.5840000  42.2429408  96.3459408   7.8770000
  43.0639408  95.9189408   7.6340000  41.5769408  95.9019408   7.3520000
  40.7739408  96.2109408  29.9660000  41.1209408  96.8889408  30.5450000
  40.1539408  96.6719408  29.4000000  54.9609408 105.1169408   6.4150000
  54.0719408 105.3439408   6.1410000  55.4919408 105.8699408   6.1570000
  49.3769408  97.5459408  12.7920000  49.5639408  97.9789408  11.9590000
  48.9799408  98.2279408  13.3340000  53.4369408  98.0999408  14.6000000
  53.0629408  98.4679408  13.7990000  53.0709408  97.2169408  14.6520000
  57.4789408  93.9939408  10.6530000  57.3369408  94.2939408   9.7560000
  57.7139408  93.0699408  10.5640000  53.8419408  97.9109408  11.1330000
  53.2649408  98.4849408  10.6300000  54.5029408  97.6239408  10.5030000
  54.1399408  91.3499408  10.9420000  53.2239408  91.4689408  11.1920000
  54.1099408  90.7419408  10.2040000  52.8249408 111.8459408  29.9020000
  53.1099408 111.1609408  30.5080000  53.3979408 111.7459408  29.1420000
  30.0609408  96.7279408  17.5830000  30.7789408  97.3319408  17.7720000
  29.7179408  97.0209408  16.7390000  49.3879408 102.0239408   1.7080000
  48.4449408 102.1189408   1.5730000  49.5609408 101.0969408   1.5410000
  48.6229408  94.8899408  12.5080000  49.1929408  94.4829408  11.8550000
  48.9969408  95.7609408  12.6440000  58.2209408 113.3229408  14.8680000
  57.5639408 113.4529408  14.1850000  59.0359408 113.1649408  14.3900000
  57.7609408  92.7849408   3.9490000  58.2159408  92.0179408   3.6010000
  57.0409408  92.9349408   3.3370000  45.8699408  97.0169408   0.6600000
  45.2029408  96.8519408   1.3270000  46.4569408  97.6569408   1.0610000
  49.5339408 107.2399408  26.6460000  50.2919408 106.8729408  26.1910000
  49.5379408 106.8119408  27.5020000  55.9399408  95.4359408  14.7680000
  56.1589408  95.8389408  13.9280000  55.7629408  94.5199408  14.5560000
  55.4509408  96.9699408   5.4990000  54.8859408  96.2069408   5.3780000
  55.7639408  97.1789408   4.6180000  30.4629408 112.8909408  13.2580000
  30.2129408 111.9829408  13.0880000  31.3599408 112.8359408  13.5870000
  44.7979408 101.2589408  20.4950000  44.1209408 101.7319408  20.0110000
  45.3779408 101.9449408  20.8280000  48.4659408 113.8039408   9.1880000
  48.8379408 114.6159408   8.8460000  48.9149408 113.1109408   8.7040000
  46.7079408  97.0059408   3.8860000  47.1969408  97.5149408   3.2390000
  46.7849408  96.0999408   3.5860000  35.6159408  93.9159408  17.9620000
  36.1299408  93.4149408  18.5940000  35.1099408  93.2559408  17.4870000
  55.2969408  95.6169408  19.7390000  56.1719408  95.2819408  19.5430000
  54.9219408  95.8239408  18.8830000  40.5079408  97.1349408  20.9140000
  41.3479408  96.7929408  20.6060000  40.6289408  97.2549408  21.8560000
  35.4309408  98.9249408  13.3460000  34.5449408  98.8439408  13.6980000
  35.4069408  99.7229408  12.8170000  59.5329408  90.6999408   3.3760000
  60.1959408  90.7629408   2.6890000  59.1429408  89.8339408   3.2540000
  49.1209408 101.3209408  13.8360000  48.7309408 101.3989408  12.9650000
  48.7629408 102.0599408  14.3270000  53.4509408 106.6139408  17.9200000
  53.0099408 107.2459408  17.3520000  52.8429408 106.4799408  18.6470000
  31.2429408 115.3819408  11.0890000  31.8839408 114.7989408  10.6820000
  30.4409408 114.8619408  11.1370000  30.5589408  93.4369408   2.1060000
  30.9039408  93.9419408   1.3700000  29.6199408  93.3699408   1.9320000
  55.4529408 113.0009408   6.3470000  56.1639408 112.5919408   6.8410000
  55.8259408 113.1649408   5.4810000  49.8289408 102.1619408   4.8400000
  50.2879408 102.3219408   5.6640000  49.5549408 103.0299408   4.5450000
  48.0169408  97.0069408  27.2190000  47.3259408  96.5609408  27.7080000
  48.0999408  96.5049408  26.4080000  55.5609408 101.1319408  15.4750000
  55.1189408 100.5969408  16.1340000  54.8589408 101.6419408  15.0700000
  31.6959408 104.5629408   5.6540000  31.0739408 104.5129408   4.9270000
  31.7619408 103.6639408   5.9750000  56.7429408  93.6139408  17.8620000
  56.4659408  94.0829408  17.0750000  56.0469408  92.9769408  18.0200000
  51.6259408 109.4869408   1.2030000  52.4039408 109.0829408   1.5860000
  51.3859408 110.1789408   1.8190000  59.2179408 113.7659408   5.8380000
  59.3659408 114.3189408   5.0710000  59.4309408 112.8809408   5.5410000
  51.2669408  90.7559408   8.5830000  51.3999408  91.0999408   9.4660000
  50.5919408  90.0849408   8.6870000  57.0549408 110.3509408  13.5330000
  56.2059408 110.0659408  13.1960000  57.4329408 109.5649408  13.9270000
  53.3629408  95.0449408  11.8150000  53.7649408  95.8809408  11.5770000
  54.1039408  94.4649408  11.9930000  54.9759408  91.0289408  20.1130000
  54.6729408  91.3969408  19.2830000  54.4759408  91.4979408  20.7810000
  52.5319408 113.9129408  16.2690000  53.3199408 113.8259408  16.8050000
  52.8589408 114.0669408  15.3830000  56.3219408  97.4929408  23.9420000
  56.3019408  96.7529408  24.5480000  57.1049408  97.9849408  24.1900000
  30.1739408 101.8329408  11.6060000  30.4409408 101.6049408  12.4960000
  30.8999408 102.3529408  11.2630000  55.7369408 109.1459408   8.1800000
  54.8499408 109.1279408   8.5390000  56.1869408 108.4239408   8.6170000
  46.6539408  99.5689408   7.1000000  46.2859408  99.1019408   6.3490000
  47.5579408  99.2609408   7.1550000  48.3429408 115.7469408   6.0430000
  48.8659408 114.9999408   5.7510000  47.5969408 115.7659408   5.4440000
  34.7929408 115.8129408   5.2480000  34.3529408 116.6369408   5.4600000
  34.0799408 115.1949408   5.0880000  53.2419408 113.1659408  10.4920000
  52.9709408 113.7249408   9.7630000  52.5509408 112.5069408  10.5570000
  55.7379408 116.5139408  16.0000000  55.5399408 115.6189408  15.7260000
  54.8859408 116.8929408  16.2160000  30.0309408  96.3349408   7.2890000
  29.4529408  95.8939408   6.6650000  30.7089408  96.7369408   6.7450000
  35.4109408  91.6389408  14.1010000  36.3529408  91.5459408  13.9540000
  35.1199408  92.2449408  13.4200000  50.9789408 101.3509408  28.1040000
  51.4849408 100.7389408  28.6380000  51.4719408 101.4199408  27.2860000
  42.0409408  93.7889408   0.3090000  41.4489408  94.5119408   0.1020000
  42.7159408  93.8299408  -0.3690000  54.4599408  92.0869408  17.5660000
  54.6979408  92.1839408  16.6440000  53.9199408  91.2969408  17.5930000
  38.5499408  94.3989408  19.4280000  39.1569408  94.0959408  20.1040000
  37.8149408  93.7869408  19.4750000  51.2339408  91.7299408  11.0500000
  51.0569408  91.7479408  11.9900000  51.0979408  92.6329408  10.7630000
  52.1169408  96.2239408  16.4610000  51.5759408  96.8179408  16.9810000
  51.6809408  96.1839408  15.6100000  57.9949408  91.5439408   9.2960000
  57.6689408  90.7739408   9.7610000  57.5859408  91.4939408   8.4320000
  34.1849408 109.2609408  15.5620000  33.2749408 109.4589408  15.3410000
  34.2369408 109.3929408  16.5080000  51.5719408 106.0879408  19.4610000
  51.2589408 106.5549408  20.2350000  52.0279408 105.3219408  19.8100000
  54.5889408 102.8039408  18.0590000  55.3309408 102.2919408  17.7360000
  54.9889408 103.5189408  18.5550000  32.6959408  94.0899408  21.8710000
  32.3059408  93.5869408  21.1560000  32.9999408  94.8979408  21.4560000
  59.8669408 112.4849408  23.7190000  60.5199408 112.0109408  23.2050000
  59.1229408 112.5889408  23.1250000  52.9719408 119.7709408   6.6800000
  52.3179408 120.1079408   7.2920000  53.6439408 119.3789408   7.2390000
  60.0319408  99.3559408   7.3470000  59.0959408  99.2539408   7.5190000
  60.1719408  98.9109408   6.5120000  42.1399408  97.4559408  12.2220000
  43.0799408  97.4309408  12.0430000  41.9669408  96.6499408  12.7080000
  52.2569408 102.3619408  11.4830000  51.7519408 103.1539408  11.2990000
  52.2079408 101.8529408  10.6740000  57.9939408  98.9349408  18.7130000
  58.8849408  98.7869408  19.0320000  57.4419408  98.4079408  19.2910000
  32.6369408  98.9269408   8.6340000  33.0599408  99.1289408   9.4690000
  31.7709408  99.3279408   8.7010000  31.9669408  98.2519408  18.4270000
  32.8179408  98.6559408  18.5950000  31.4089408  98.5619408  19.1400000
  57.5039408  95.9579408  12.6760000  57.6349408  95.1329408  12.2080000
  57.4329408  96.6169408  11.9850000  36.0659408  93.5049408   3.3350000
  35.7129408  94.3689408   3.5490000  35.3759408  93.0859408   2.8200000
  50.1629408  93.2489408   7.1740000  50.7889408  92.6829408   7.6270000
  49.4289408  93.3299408   7.7820000  46.8479408 119.6619408  10.6200000
  46.3209408 119.0759408  11.1630000  46.2789408 119.8849408   9.8840000
  35.8869408 100.2809408   5.3640000  35.6359408 100.8369408   6.1020000
  35.8729408 100.8659408   4.6070000  52.0509408 117.8479408  21.3780000
  52.2919408 117.3129408  20.6220000  52.4079408 118.7149408  21.1820000
  56.0049408 118.4509408  20.5770000  55.3879408 117.8689408  20.1320000
  55.6789408 119.3319408  20.3920000  45.9519408 105.9449408   0.6750000
  45.0699408 105.6069408   0.8280000  46.3909408 105.2529408   0.1800000
  52.1649408  97.7679408   8.6350000  53.0789408  97.4839408   8.6030000
  52.1279408  98.5239408   8.0490000  54.3869408 100.8979408   7.2380000
  54.6949408 101.3449408   8.0260000  55.0989408 101.0059408   6.6070000
  50.4669408 117.5979408  16.5020000  50.0149408 118.4079408  16.7400000
  49.9129408 116.9009408  16.8520000  47.1799408 114.4859408  11.5940000
  47.1339408 114.0919408  10.7230000  47.8769408 115.1389408  11.5260000
  57.1109408  97.9229408  10.7590000  56.6699408  98.6599408  11.1820000
  57.2859408  98.2279408   9.8680000  54.4309408  98.2329408   0.1660000
  54.9999408  98.8329408  -0.3160000  54.9499408  97.9689408   0.9260000
  57.6649408 107.8339408  20.4340000  57.0099408 107.9209408  21.1270000
  57.7929408 108.7259408  20.1110000  50.4459408  95.7249408   5.9510000
  50.6899408  94.9389408   6.4390000  51.2809408  96.0999408   5.6680000
  34.0989408 107.2339408  20.9040000  33.5579408 107.6299408  20.2210000
  34.7849408 107.8809408  21.0720000  53.0409408 115.6989408   7.7480000
  52.2169408 116.1149408   7.4950000  53.0589408 114.8799408   7.2530000
  45.0709408  93.1099408  11.9730000  45.9309408  92.7019408  11.8700000
  44.5769408  92.4959408  12.5170000  31.2549408  96.8109408  14.1630000
  30.3669408  96.7379408  14.5100000  31.5479408  97.6809408  14.4330000
  31.2039408 108.3319408   8.1590000  31.7869408 108.4599408   8.9080000
  30.4139408 107.9419408   8.5330000  40.8509408 108.0429408  20.5640000
  41.5169408 107.8769408  19.8970000  40.6929408 107.1879408  20.9640000
  55.3289408 103.5029408  11.5810000  55.0329408 104.2309408  12.1270000
  56.1189408 103.1829408  12.0170000  57.1119408 117.8559408  14.3000000
  56.6299408 117.3489408  14.9530000  58.0099408 117.8809408  14.6300000
  54.7879408  92.1149408   5.8990000  54.1839408  91.3719408   5.9120000
  55.6579408  91.7159408   5.9040000  49.4179408 105.1679408  16.0930000
  50.2329408 104.6729408  16.0060000  49.6999408 106.0539408  16.3210000
  57.7659408 103.5989408   3.8470000  57.7389408 103.8419408   4.7720000
  57.9009408 104.4269408   3.3850000  35.1689408 104.5189408  16.3780000
  35.8409408 104.4369408  17.0540000  34.4199408 104.9079408  16.8290000
  54.5049408  93.7859408   8.3370000  54.6659408  93.1259408   7.6630000
  55.3689408  93.9629408   8.7110000  57.8919408 105.9599408   1.8140000
  57.0629408 105.4949408   1.6950000  58.2699408 106.0039408   0.9360000
  51.4209408  95.9589408  13.7260000  50.7449408  96.4539408  13.2630000
  52.0389408  95.6999408  13.0420000  34.4059408 100.8699408   1.0480000
  33.6999408 101.4429408   1.3470000  35.1239408 101.0339408   1.6600000
  47.9489408 107.1749408  11.2960000  47.9059408 106.2389408  11.0990000
  48.8179408 107.2979408  11.6800000  55.4809408 101.9639408   9.4060000
  55.1199408 102.5119408  10.1030000  56.2799408 101.5939408   9.7810000
  57.2379408  94.9699408   8.0610000  57.3909408  95.8909408   8.2740000
  57.5609408  94.8749408   7.1650000  54.1389408  98.9709408  24.3760000
  53.4629408  98.4299408  23.9690000  54.9209408  98.4189408  24.3760000
  46.7859408 108.4209408   1.6810000  46.7219408 107.5299408   1.3370000
  47.4129408 108.8559408   1.1040000  52.8489408 103.5719408  19.9600000
  53.5609408 103.2709408  19.3950000  52.1069408 103.0129408  19.7290000
  53.2589408  90.4689408  14.2250000  53.7039408  89.7619408  13.7580000
  53.9489408  91.1049408  14.4120000  38.5139408 108.9249408   4.6940000
  38.4449408 107.9949408   4.9100000  37.8739408 109.0569408   3.9950000
  30.9149408 102.1979408   3.5130000  30.7669408 102.8599408   2.8380000
  30.2449408 101.5339408   3.3490000  46.2619408  95.6629408  11.8050000
  47.1559408  95.3529408  11.9450000  45.7269408  94.8699408  11.8260000
  55.2609408  92.5219408  15.1500000  56.1599408  92.1979408  15.2140000
  55.1129408  92.6349408  14.2110000  56.0369408  99.7699408  12.4210000
  56.3529408  99.1019408  13.0300000  55.0999408  99.8379408  12.6050000
  53.0209408  98.4339408   3.5050000  53.2149408  99.3699408   3.4500000
  53.4379408  98.1499408   4.3190000  48.3969408  91.7669408   4.5070000
  48.1719408  91.0319408   5.0770000  49.3529408  91.8069408   4.5340000
  59.4079408 110.4649408  12.4830000  58.5159408 110.4729408  12.8300000
  59.2959408 110.4509408  11.5330000  49.9099408  98.3669408  10.0660000
  49.9099408  99.2509408   9.6990000  50.6139408  97.9149408   9.6030000
  52.6919408 101.3699408  26.1520000  52.7639408 100.5559408  25.6530000
  53.5839408 101.5479408  26.4510000  52.3429408 107.8229408  13.7280000
  52.4789408 108.5569408  14.3260000  51.4959408 107.9999408  13.3180000
  48.5539408 108.9259408  24.6820000  48.7939408 108.2999408  25.3660000
  49.3529408 109.4279408  24.5250000  30.9789408 101.7839408   6.4660000
  30.8059408 101.5689408   5.5490000  30.8379408 100.9619408   6.9360000
  48.5449408  96.2349408   8.9460000  48.6869408  96.3049408   8.0020000
  48.8589408  97.0669408   9.2990000  47.5829408  92.1169408  11.6990000
  47.5359408  91.9249408  12.6360000  47.4419408  91.2719408  11.2740000
  53.0879408  96.0449408   2.2860000  53.1179408  96.9629408   2.5550000
  52.5769408  96.0479408   1.4770000  49.4299408 119.0179408   0.8690000
  50.3869408 119.0099408   0.8630000  49.1899408 118.4979408   1.6360000
  53.0929408  94.5809408  26.6170000  53.7929408  94.1529408  26.1250000
  52.4559408  94.8409408  25.9520000  59.4029408 111.3029408  16.8030000
  59.1189408 112.1149408  16.3830000  60.2919408 111.4879408  17.1050000
  59.9999408  93.3119408   8.7350000  59.2879408  92.6869408   8.8720000
  59.6239408  94.1599408   8.9690000  37.9229408  90.9289408   7.0610000
  38.3859408  91.4039408   7.7510000  37.6119408  91.6119408   6.4670000
  56.0629408  96.2019408   2.8730000  56.7759408  96.4759408   2.2960000
  55.4759408  95.7009408   2.3070000  55.4119408 110.8149408   1.5320000
  55.4999408 110.9999408   0.5970000  56.2239408 110.3649408   1.7650000
  58.3659408  95.4669408  19.3010000  58.8039408  95.9929408  18.6320000
  58.0599408  94.6899408  18.8330000  50.9419408  94.3839408  17.7550000
  50.5819408  93.9059408  17.0080000  51.5239408  95.0359408  17.3640000
  59.4049408  99.7769408   1.2160000  59.7829408  99.6169408   0.3520000
  58.8879408  98.9919408   1.4010000  32.6029408 106.3849408  27.6050000
  32.3689408 106.0419408  26.7430000  33.5349408 106.1849408  27.6980000
  51.4199408 103.2069408  24.2540000  51.6209408 102.3409408  24.6100000
  51.2789408 103.0559408  23.3200000  57.5159408 101.6489408  18.8270000
  57.5849408 100.6959408  18.7670000  57.6049408 101.8379408  19.7610000
  30.9759408 103.9229408  26.7960000  31.2779408 104.0099408  27.7000000
  31.7439408 103.6149408  26.3150000  54.1129408  91.7349408  28.1150000
  54.7809408  91.4299408  27.5010000  54.4059408  92.6089408  28.3730000
  51.7639408 103.3609408   2.3840000  51.7739408 103.7069408   1.4920000
  50.9559408 102.8499408   2.4340000  30.6829408  94.4809408  26.5800000
  30.8219408  94.3349408  25.6450000  30.8769408  95.4089408  26.7100000
  58.0309408 115.7699408   0.2010000  57.6519408 116.3839408  -0.4290000
  58.7909408 116.2309408   0.5560000  32.9169408 100.2559408  22.9200000
  32.3259408 100.8239408  22.4250000  33.4999408 100.8599408  23.3800000
  51.1939408  94.9999408  24.4080000  50.3499408  95.2639408  24.7730000
  51.2559408  94.0639408  24.5980000  56.5439408  95.5789408  25.9390000
  55.8209408  94.9659408  25.8060000  57.3229408  95.0939408  25.6660000
  58.7599408 118.1839408   3.0480000  58.8759408 117.2849408   3.3560000
  59.4779408 118.3219408   2.4310000  32.6489408  97.0719408  23.3300000
  32.9159408  97.8839408  22.8980000  32.1039408  96.6239408  22.6820000
  52.4329408 114.4709408   0.8190000  51.6569408 114.3989408   1.3750000
  52.5059408 113.6149408   0.3970000  57.0089408  97.7539408  20.9100000
  57.1639408  97.5669408  21.8360000  56.1749408  97.3249408  20.7160000
  33.2349408 108.6979408  24.7910000  32.6099408 107.9739408  24.8150000
  34.0829408 108.2909408  24.9680000  35.1829408 105.2449408  28.7310000
  35.2499408 104.6459408  27.9880000  36.0909408 105.4169408  28.9820000
  49.5569408 109.2589408   4.7920000  49.8279408 108.5009408   4.2750000
  49.5719408 109.9889408   4.1730000  56.9399408 100.5709408   5.5480000
  57.2969408 101.4359408   5.7460000  57.5429408 100.2049408   4.9000000
  52.1869408  97.3489408  23.2340000  52.6329408  97.2299408  22.3960000
  51.9849408  96.4599408  23.5270000  53.0549408 116.8219408  15.9560000
  52.1179408 116.8199408  16.1500000  53.1779408 116.0819408  15.3610000
  56.0829408 104.9759408  22.9120000  56.8299408 104.5689408  22.4730000
  56.1679408 104.7089408  23.8270000  31.7139408  94.7479408   4.2270000
  31.3929408  94.3309408   3.4270000  31.0859408  94.4889408   4.9010000
  56.7119408 118.8939408   1.2240000  57.5319408 118.5429408   1.5710000
  56.3319408 119.3829408   1.9540000  57.4089408 118.0439408  28.3580000
  56.8659408 118.5749408  28.9420000  58.0689408 118.6529408  28.0260000
  36.1619408 111.5309408  25.3790000  36.6229408 112.3089408  25.0660000
  36.8009408 110.8229408  25.2930000  54.1759408 108.5089408   1.7660000
  54.5339408 109.3739408   1.5650000  54.8279408 108.1069408   2.3410000
  55.2449408 105.1359408  19.2390000  54.6809408 105.3399408  19.9860000
  55.0279408 105.8009408  18.5860000  57.8889408  92.9389408   0.7890000
  57.1389408  92.3659408   0.9500000  57.5709408  93.8159408   1.0000000
  47.5889408  95.9449408  21.8650000  47.9269408  95.0509408  21.9150000
  48.2399408  96.4199408  21.3480000  48.6329408  93.7929408  27.6990000
  49.4459408  93.2949408  27.6140000  48.5859408  94.0199408  28.6280000
  50.0679408  96.6019408  20.6770000  50.4109408  95.7399408  20.4420000
  50.8469408  97.1369408  20.8290000  59.4139408  93.1659408  16.0720000
  59.2369408  92.3849408  16.5970000  58.9069408  93.8589408  16.4960000
  47.8799408  97.6249408  24.1220000  47.7579408  96.6759408  24.0920000
  47.0159408  97.9709408  24.3480000  51.5639408 105.6829408  25.4200000
  52.2419408 105.5029408  26.0710000  51.3869408 104.8329408  25.0160000
  54.0009408  94.7069408   5.0710000  53.8849408  94.5229408   4.1390000
  54.2479408  93.8649408   5.4530000  32.5169408  93.7909408  28.9940000
  32.3399408  94.7299408  29.0370000  32.0049408  93.4829408  28.2460000
  39.8899408 101.8059408  17.1790000  40.2009408 101.2239408  17.8720000
  40.1229408 101.3559408  16.3660000  32.2539408 105.9619408  24.7120000
  31.4929408 105.4689408  24.4070000  33.0069408 105.4519408  24.4130000
  50.0029408  99.2039408  23.4090000  50.8009408  98.6759408  23.4560000
  49.3039408  98.6049408  23.6730000  53.6059408 102.7209408  14.1930000
  53.3069408 102.6279408  13.2890000  53.8659408 103.6389408  14.2670000
  51.9269408 108.4589408  27.4240000  51.6859408 109.2179408  27.9550000
  51.2059408 107.8409408  27.5460000  50.6599408 110.6539408  28.5530000
  50.8069408 110.9329408  29.4560000  50.5649408 111.4699408  28.0610000
  53.0969408  97.0939408  20.7320000  53.5719408  97.7899408  20.2780000
  53.5829408  96.2959408  20.5220000  30.1209408  97.1739408  25.0360000
  31.0009408  97.3079408  24.6820000  29.6779408  98.0119408  24.9010000
  51.2829408  94.2129408  10.2370000  52.1709408  94.4309408  10.5200000
  50.9569408  95.0169408   9.8310000  35.2779408 101.5559408   7.5480000
  34.8449408 100.9229408   8.1220000  35.5749408 102.2489408   8.1370000
  36.0519408  96.0389408  12.9900000  36.7619408  95.9259408  12.3580000
  35.9799408  96.9859408  13.1040000  56.9689408 116.1229408  22.1750000
  57.8909408 116.2139408  22.4190000  56.8059408 116.8519408  21.5770000
  30.5089408  99.7659408  13.8980000  29.8269408  99.7809408  14.5700000
  30.2249408  99.0889408  13.2830000  52.0069408 103.9469408  16.1180000
  52.6479408 103.3789408  15.6900000  52.4899408 104.3509408  16.8390000
  51.3509408 113.5839408  27.1550000  52.0519408 114.1379408  26.8110000
  50.8199408 114.1729408  27.6900000  33.1369408 105.9089408  17.4420000
  33.2879408 106.7359408  17.8990000  32.3239408 106.0479408  16.9560000
  54.1139408  93.7159408  21.1230000  54.5879408  94.4759408  20.7840000
  54.5419408  93.5189408  21.9560000  29.8739408  99.2279408  27.4500000
  30.4399408  99.4969408  26.7260000  30.4529408  98.7489408  28.0430000
  43.7419408  96.4529408  15.6390000  44.2449408  96.8479408  14.9270000
  43.4279408  97.1979408  16.1520000  33.9139408 104.3159408  20.0960000
  33.3239408 105.0459408  20.2810000  33.8699408 104.2069408  19.1460000
  49.3529408  99.0949408  19.9650000  48.9699408  99.8979408  20.3180000
  49.1119408  98.4159408  20.5960000  47.2159408  92.2419408  14.2630000
  47.4569408  91.6839408  15.0030000  46.9959408  93.0849408  14.6600000
  35.4609408 104.3169408  26.1370000  34.8509408 103.6819408  25.7600000
  36.2679408 103.8219408  26.2740000  36.1759408  93.6459408  23.8610000
  37.0319408  93.4339408  24.2340000  35.6269408  93.8449408  24.6190000
  30.6509408 104.1239408  23.5250000  29.7119408 103.9479408  23.5810000
  30.9809408 103.4709408  22.9080000  32.0539408 102.5049408  21.6720000
  32.7779408 103.0489408  21.3630000  31.3189408 102.7389408  21.1060000
  57.4739408  98.2959408   7.3770000  57.0789408  99.0559408   6.9490000
  57.4529408  97.6089408   6.7110000  34.6389408  98.2059408   0.3610000
  34.5499408  99.1419408   0.5400000  35.5799408  98.0399408   0.4160000
  33.5789408  95.2939408  14.7230000  34.2869408  95.7469408  14.2640000
  32.8469408  95.9109408  14.7040000  44.3679408  98.5949408  20.4910000
  44.4269408  99.5469408  20.5680000  44.3979408  98.4279408  19.5490000
  32.4339408 119.4479408  21.3220000  31.7669408 118.7629408  21.3040000
  32.1439408 120.0829408  20.6670000  49.6399408 107.0629408  21.6660000
  50.2749408 107.2579408  22.3550000  49.4069408 107.9179408  21.3040000
  31.7099408  94.5589408  17.3620000  31.2679408  94.1129408  16.6390000
  31.0809408  95.2169408  17.6580000  33.7859408  93.1389408   5.5410000
  34.7399408  93.2159408   5.5740000  33.5029408  93.8839408   5.0110000
  52.3099408 100.3559408  21.7640000  51.7209408 101.1059408  21.6740000
  51.7629408  99.6659408  22.1410000  58.6129408 110.5529408  20.3810000
  59.2029408 110.8629408  21.0670000  58.5069408 111.3039408  19.7970000
  48.5159408 115.7009408   0.7170000  48.6129408 116.6029408   1.0230000
  49.1969408 115.5999408   0.0510000  54.3199408 105.3179408  13.4330000
  53.7379408 106.0469408  13.2200000  54.8819408 105.6559408  14.1310000
  52.5469408 105.5769408   4.2880000  51.8889408 106.0879408   3.8160000
  52.4899408 104.7009408   3.9070000  49.5539408  90.0589408  17.2370000
  49.8519408  90.3489408  16.3750000  48.6799408  90.4369408  17.3290000
  54.5779408 116.1839408  19.7680000  55.3119408 115.7339408  19.3490000
  53.8019408 115.8429408  19.3220000  51.9709408 119.7309408   4.2900000
  51.4919408 120.5529408   4.3860000  52.2929408 119.5359408   5.1700000
  49.7779408 113.9979408  13.5600000  50.2779408 114.1409408  12.7560000
  50.3799408 113.5269408  14.1360000  46.2369408  92.5929408   7.0360000
  46.4979408  91.7169408   6.7530000  47.0569408  93.0199408   7.2820000
  47.8549408  93.6489408   8.8230000  48.0219408  94.5789408   8.9790000
  47.6949408  93.2839408   9.6930000  50.3289408 114.1079408   2.8240000
  49.6049408 114.5969408   2.4350000  50.2499408 114.2699408   3.7640000
  51.6989408  90.0119408  19.4060000  52.3109408  89.7979408  18.7010000
  50.9559408  90.4209408  18.9620000  57.1489408 111.4149408   8.1260000
  57.0169408 111.9989408   8.8730000  56.3659408 110.8649408   8.1090000
  51.1139408  92.1109408   4.7390000  51.1109408  92.6599408   5.5240000
  51.5609408  92.6399408   4.0780000  52.0079408 100.1399408  16.2200000
  51.9829408 100.3189408  15.2790000  52.8879408  99.7949408  16.3750000
  46.6089408 108.0909408  13.3550000  46.7289408 107.5009408  12.6110000
  47.4469408 108.5439408  13.4390000  57.8639408 107.4319408   9.3610000
  57.7469408 107.2979408  10.3010000  58.3079408 108.2779408   9.2930000
  31.0329408 115.6039408  13.9710000  30.2089408 115.2399408  14.2930000
  31.2309408 115.0919408  13.1870000  31.9339408 119.6879408  18.6420000
  32.2469408 118.7839408  18.6550000  31.5109408 119.7829408  17.7880000
  31.1559408 108.4609408  20.0400000  30.2709408 108.7809408  19.8660000
  31.0349408 107.5459408  20.2950000  32.0799408 118.3339408   3.5080000
  31.6479408 118.7749408   2.7770000  32.4669408 119.0439408   4.0210000
  47.4589408 109.6149408   6.9330000  46.5709408 109.2699408   7.0270000
  47.7209408 109.3639408   6.0470000  55.5019408 115.3549408  28.7860000
  56.3499408 114.9159408  28.7100000  55.0439408 115.1329408  27.9750000
  56.6749408 107.5639408  13.5590000  56.2789408 107.7839408  14.4030000
  56.8119408 106.6169408  13.5990000  49.9319408 113.5469408   5.4520000
  49.4589408 112.7149408   5.4690000  50.8459408 113.3059408   5.6030000
  53.0439408 111.6259408  13.4910000  52.5689408 111.6099408  12.6600000
  53.9519408 111.4399408  13.2520000  51.5259408 117.0239408   3.9340000
  51.8329408 116.7029408   3.0860000  51.8009408 117.9409408   3.9570000
  52.5659408 113.1829408   6.2490000  52.5139408 112.3989408   6.7960000
  53.4839408 113.2299408   5.9820000  32.7359408 113.2419408  21.7040000
  32.8889408 113.6109408  20.8350000  32.5469408 113.9999408  22.2570000
  55.2289408  93.2469408  12.4100000  54.8559408  92.6399408  11.7710000
  56.0849408  93.4789408  12.0500000  33.0529408 116.7679408  15.5720000
  32.4119408 116.2939408  15.0430000  33.1159408 117.6289408  15.1590000
  54.1119408 111.8259408   3.7350000  54.7569408 112.4489408   4.0690000
  54.4369408 111.5849408   2.8680000  55.3229408 106.5199408   3.7300000
  55.4299408 105.8639408   3.0410000  54.4889408 106.2979408   4.1450000
  31.2079408 114.3789408  28.9760000  30.7519408 113.5889408  29.2650000
  32.1189408 114.1049408  28.8680000  55.6729408 110.8899408  23.2500000
  55.9379408 111.6929408  22.8020000  55.0279408 110.4909408  22.6670000
  58.0719408 105.0429408  14.1250000  58.3279408 104.1539408  13.8810000
  58.7059408 105.6059408  13.6790000  51.4969408 107.6769408   8.9910000
  50.6869408 107.9649408   9.4120000  51.2069408 107.1699408   8.2330000
  51.3089408 111.2979408  10.9070000  50.3719408 111.3809408  11.0840000
  51.3559408 110.9219408  10.0280000  49.9409408 115.9629408  28.3800000
  49.0549408 116.3189408  28.3170000  50.3819408 116.2749408  27.5900000
  52.7679408 109.3119408  17.3790000  52.3009408 110.0629408  17.0110000
  53.4259408 109.6989408  17.9570000  49.7129408 111.5399408   7.5910000
  49.1179408 110.8719408   7.2500000  50.5109408 111.0599408   7.8100000
  53.7039408 107.7479408  10.5130000  54.1529408 106.9339408  10.2860000
  52.9529408 107.7799408   9.9200000  57.4709408 115.8359408   6.5070000
  57.7579408 114.9329408   6.6370000  57.3959408 115.9299408   5.5570000
  57.1539408 115.2229408  18.8610000  57.2309408 114.5909408  18.1470000
  57.9429408 115.7599408  18.7930000  58.9979408 105.2499408  17.3840000
  58.6679408 105.0439408  18.2580000  58.5579408 104.6249408  16.8080000
  47.0249408 112.7099408  17.6690000  46.8809408 112.0149408  17.0260000
  46.7759408 113.5139408  17.2140000  55.5159408  92.1409408   2.2740000
  54.6969408  92.6339408   2.2290000  55.2789408  91.3189408   2.7030000
  57.8379408 106.4779408   4.9610000  57.1649408 106.4449408   4.2810000
  58.2269408 107.3489408   4.8720000  48.1619408 101.4479408  18.1310000
  48.1129408 101.6889408  19.0560000  49.0279408 101.7449408  17.8520000
  41.7949408  94.1809408  15.4660000  41.0579408  94.3869408  16.0420000
  42.4969408  94.7619408  15.7580000  54.6279408 119.7129408   3.2650000
  53.6809408 119.5999408   3.3410000  54.9819408 119.3039408   4.0550000
  54.1549408 118.4689408   8.6710000  54.9869408 117.9959408   8.6860000
  53.5239408 117.8559408   9.0480000  57.6299408 118.3429408   7.5860000
  57.5669408 117.3909408   7.5050000  57.5549408 118.5079408   8.5260000
  56.7179408 113.2369408  17.1170000  57.0469408 113.5299408  16.2670000
  56.4409408 112.3329408  16.9690000  58.6429408 113.4169408   2.1320000
  59.5469408 113.7219408   2.2000000  58.2299408 114.0239408   1.5180000
  48.1019408 119.3339408  13.8490000  48.8249408 119.9569408  13.9170000
  48.5209408 118.5029408  13.6270000  30.8829408 105.8929408  20.9960000
  31.0199408 105.6469408  21.9110000  30.0429408 105.4959408  20.7640000
  59.7119408 117.0349408  18.1520000  59.5509408 117.4989408  17.3300000
  59.2639408 117.5589408  18.8150000  37.1339408 113.6299408  17.5170000
  36.9599408 114.4419408  17.0430000  37.4829408 113.0339408  16.8540000
  34.8129408 110.6049408  20.3340000  34.8989408 111.5329408  20.5520000
  34.8869408 110.1529408  21.1740000  55.3029408 116.0099408  11.7730000
  55.0519408 115.5969408  10.9470000  54.6769408 116.7259408  11.8830000
  45.4609408 113.4619408   3.0360000  45.9439408 113.2799408   2.2300000
  45.3659408 112.6069408   3.4560000  43.5109408 117.9189408  15.3630000
  44.4469408 117.8499408  15.5500000  43.2639408 117.0499408  15.0470000
  55.1669408 115.1589408   1.8110000  54.2559408 114.8679408   1.8270000
  55.3879408 115.2049408   0.8810000  51.1539408 117.1659408   6.5480000
  51.4189408 116.9389408   5.6570000  51.5359408 118.0299408   6.7000000
  47.0539408 116.8609408  28.2050000  46.3929408 117.1089408  28.8510000
  46.5519408 116.4939408  27.4770000  46.0469408  94.5639408  15.7710000
  46.0809408  94.5099408  16.7260000  45.4529408  95.2939408  15.5940000
  32.8799408 117.4629408  12.2670000  32.0239408 117.0379408  12.2150000
  33.2679408 117.3299408  11.4030000  58.6919408 109.2009408   3.8620000
  59.5599408 108.8229408   3.7170000  58.1619408 108.8679408   3.1380000
  57.3199408 108.8899408   1.5420000  57.8129408 109.1749408   0.7720000
  57.3469408 107.9339408   1.5040000  30.1709408 115.8719408   3.6420000
  30.6029408 115.3299408   2.9810000  30.8439408 116.4929408   3.9200000
  51.9069408 110.2649408   8.2860000  51.7919408 109.3209408   8.3890000
  52.4119408 110.3589408   7.4790000  50.8209408 115.7819408  11.5460000
  50.6039408 115.9449408  10.6280000  50.7959408 116.6459408  11.9560000
  57.3569408  91.1799408   6.2670000  57.6309408  91.6629408   5.4870000
  58.0139408  90.4909408   6.3660000  48.4929408 110.8929408  11.3400000
  48.2899408 110.2629408  10.6490000  47.8709408 111.6069408  11.2050000
  57.5929408 118.9229408  10.4380000  57.4519408 119.3709408  11.2720000
  58.5019408 118.6269408  10.4740000  39.8979408 118.3239408  17.5680000
  40.5479408 117.6229408  17.5210000  39.0609408 117.8869408  17.4100000
  30.6229408 115.0849408  19.8260000  31.5509408 114.8679408  19.9130000
  30.5909408 115.7159408  19.1080000  42.2699408 106.4249408  28.7760000
  42.9509408 107.0969408  28.8060000  42.4539408 105.9319408  27.9760000
  59.5049408  99.6089408   3.9390000  59.2369408  99.4409408   3.0360000
  60.3389408  99.1489408   4.0320000  54.9399408 118.5519408  12.8940000
  55.6679408 118.0659408  13.2810000  55.3499408 119.3119408  12.4820000
  56.2609408 110.5759408  16.5330000  55.9599408 109.7359408  16.1870000
  57.1519408 110.4039408  16.8380000  30.9209408 119.9589408   9.9480000
  31.4189408 119.3979408   9.3520000  30.0779408 120.0829408   9.5120000
  30.1289408  90.2789408   6.1440000  30.1339408  90.2069408   5.1890000
  30.6739408  89.5509408   6.4420000  50.1059408 116.3139408   8.9570000
  50.3829408 116.3689408   8.0430000  49.8789408 117.2129408   9.1940000
  53.6379408 119.1839408  27.3740000  53.8629408 118.6559408  28.1400000
  53.7149408 120.0889408  27.6760000  47.8029408  91.4979408   2.0150000
  47.8179408  91.3079408   2.9530000  47.9959408  90.6579408   1.5970000
  51.2849408 111.4409408   3.2030000  52.1909408 111.6019408   3.4660000
  50.9289408 112.3109408   3.0260000  54.8339408 108.1349408  15.5300000
  55.1179408 107.2749408  15.8380000  54.2629408 108.4619408  16.2250000
  55.9399408 113.0769408  10.1740000  55.0409408 112.8989408  10.4490000
  55.8779408 113.8789408   9.6550000  37.8459408  94.6539408  28.8310000
  38.2209408  94.7389408  29.7070000  37.3629408  93.8279408  28.8550000
  30.5509408 113.0329408   8.3860000  30.1859408 113.4379408   7.6000000
  29.8569408 113.1109408   9.0410000  51.0919408  92.8469408  27.7180000
  51.6289408  92.2659408  28.2570000  51.7059408  93.5029408  27.3870000
  49.0939408 115.2559408  17.6310000  48.8449408 115.5209408  18.5160000
  48.5189408 114.5169408  17.4310000  54.6889408 116.4959408  23.9890000
  55.4609408 116.4079408  23.4300000  54.0209408 115.9579408  23.5630000
  49.7889408 117.3129408  23.2930000  50.5389408 117.1429408  22.7230000
  49.6029408 118.2449408  23.1720000  56.0789408 118.6559408   5.3270000
  56.5179408 118.9459408   6.1270000  56.5309408 117.8469408   5.0860000
  51.9989408 117.5469408   1.0180000  52.9239408 117.6119408   0.7810000
  51.7279408 116.6889408   0.6910000  47.6129408 110.7449408   3.2240000
  47.4149408 109.8939408   2.8320000  47.7729408 111.3209408   2.4770000
  58.7029408 113.2359408  20.3090000  59.5569408 113.6369408  20.1500000
  58.0819408 113.8059408  19.8540000  49.1839408 112.3919408  19.3730000
  48.8759408 112.0519408  20.2130000  48.3959408 112.4469408  18.8330000
  52.4529408 112.8319408  24.3870000  53.2899408 113.2969408  24.4070000
  51.9209408 113.3219408  23.7600000  59.3329408 110.1069408   9.6110000
  60.1389408 110.5079408   9.2850000  58.7129408 110.1949408   8.8870000
  44.6139408 114.3099408  28.8680000  43.7559408 114.7329408  28.8890000
  45.0889408 114.7639408  28.1720000  31.4839408 110.5129408  26.1210000
  31.9909408 109.8839408  25.6070000  30.8779408 110.9039408  25.4910000
  59.0999408 116.4319408  25.9860000  58.5239408 116.4859408  26.7480000
  58.5919408 115.9469408  25.3350000  57.4289408 114.6289408  24.5640000
  56.6139408 114.5409408  24.0710000  57.3679408 113.9629408  25.2490000
  32.8429408 115.7119408  23.1490000  33.7689408 115.4969408  23.0340000
  32.8479408 116.5679408  23.5780000  53.8769408 111.7659408  27.1800000
  54.5629408 112.2469408  26.7180000  53.0929408 112.3049408  27.0720000
  58.0669408 105.0089408  20.1910000  58.0739408 105.9439408  19.9830000
  57.1889408 104.8459408  20.5340000  59.9059408 118.0329408  21.8660000
  59.3759408 118.3819408  22.5830000  60.0419408 117.1129408  22.0930000
  57.5559408 113.3009408  28.4550000  58.1949408 113.8009408  28.9620000
  58.0589408 112.9369408  27.7270000  50.8229408 110.4389408  24.5460000
  51.4419408 111.1659408  24.6110000  50.8099408 110.2179408  23.6140000
  33.7959408  92.6399408   1.5360000  33.1589408  93.0979408   0.9870000
  33.2689408  92.0539408   2.0780000  54.2699408 119.2149408  24.6630000
  54.2869408 118.9489408  25.5820000  54.4699408 118.4149408  24.1780000
  49.3969408 112.8279408  25.2380000  49.5079408 112.1059408  24.6190000
  50.1119408 112.7199408  25.8640000  50.7379408  93.9019408  20.2470000
  50.8629408  93.9519408  19.3000000  51.6089408  94.0529408  20.6130000
  59.0199408 118.8129408  24.3330000  59.8619408 119.1639408  24.6250000
  58.8459408 118.0819408  24.9260000  46.8359408  91.2099408  27.0900000
  47.4759408  90.5949408  27.4500000  47.1229408  92.0669408  27.4050000
  56.1579408 116.4039408   3.9090000  55.6669408 117.2129408   4.0520000
  55.8099408 116.0549408   3.0890000  47.0399408 118.4119408  24.8180000
  47.5809408 118.5059408  25.6020000  47.1749408 117.5059408  24.5410000
  53.6199408 114.9529408  22.0760000  52.8519408 114.5989408  21.6270000
  54.1499408 115.3379408  21.3780000  51.2529408 113.5169408  20.7880000
  50.5179408 113.0819408  20.3570000  50.8559408 113.9929408  21.5170000
  33.1729408 119.6979408  23.8650000  32.8949408 119.4999408  22.9710000
  33.6089408 120.5479408  23.7990000  54.4219408  99.4159408  20.1160000
  55.2529408  99.6309408  20.5400000  53.7539408  99.7569408  20.7110000
  32.7039408 111.1609408   0.5350000  31.8629408 111.6189408   0.5440000
  32.8899408 111.0209408  -0.3940000  48.5739408 116.5729408  19.9790000
  49.3969408 117.0059408  20.2050000  47.9349408 116.9379408  20.5900000
  53.9579408  91.6669408  23.3620000  53.0839408  91.9459408  23.6370000
  54.0009408  90.7409408  23.6010000  53.5929408 110.4459408   6.1030000
  54.4549408 110.0469408   6.2220000  53.6239408 110.8299408   5.2270000
  51.0189408 111.9559408  17.3460000  50.6409408 112.0609408  18.2200000
  51.4569408 112.7889408  17.1720000  35.0389408 110.2599408  23.3180000
  35.4329408 110.8059408  23.9980000  34.2329408 109.9279408  23.7140000
  54.5659408 117.9129408  29.5880000  54.9279408 117.0679408  29.3220000
  55.1819408 118.2429408  30.2420000  52.3159408  90.6029408   0.0200000
  52.8489408  90.3259408   0.7650000  52.9519408  90.8169408  -0.6630000
  32.0639408  92.4419408  19.6400000  32.0359408  93.1009408  18.9460000
  31.3919408  91.8059408  19.3950000  46.0279408 119.2599408  18.5900000
  45.0909408 119.1729408  18.4130000  46.1359408 118.9249408  19.4800000
  50.3859408 114.2079408  23.2040000  50.0829408 115.1069408  23.3300000
  49.8389408 113.6859408  23.7910000  30.8689408  96.2169408   0.9050000
  31.1979408  96.6709408   0.1290000  31.6129408  96.1979408   1.5060000
  34.5629408 115.8619408  25.9740000  33.6279408 116.0279408  26.0910000
  34.7009408 114.9909408  26.3480000  40.0009408 116.2329408  21.9690000
  40.8279408 115.7619408  22.0740000  40.2609408 117.1449408  21.8330000
  43.1139408 119.2469408  18.1040000  43.4209408 118.6579408  17.4150000
  42.3449408 119.6749408  17.7280000  34.1209408 103.6749408  43.7610000
  34.0209408 104.4239408  44.3480000  34.6659408 103.0579408  44.2490000
  36.9639408 117.2739408  34.1330000  36.2589408 116.7169408  34.4630000
  36.9889408 118.0129408  34.7410000  36.7109408 108.7099408  51.4700000
  36.3839408 109.3649408  52.0880000  37.6529408 108.8729408  51.4250000
  35.8789408  96.9689408  38.7010000  35.4139408  96.1719408  38.4480000
  35.9029408  97.4959408  37.9020000  30.6359408 104.0729408  38.5360000
  29.8129408 104.3929408  38.1640000  30.9089408 103.3719408  37.9450000
  35.6149408 103.6859408  38.9500000  35.7649408 103.7169408  39.8950000
  34.7539408 104.0859408  38.8300000  32.5329408  97.1629408  58.8470000
  33.2739408  97.5749408  59.2930000  32.8629408  96.9599408  57.9720000
  42.9309408 115.5519408  44.1980000  43.8639408 115.3599408  44.1090000
  42.5239408 115.1209408  43.4470000  48.3629408 111.3589408  30.6810000
  47.7089408 112.0489408  30.5670000  48.2789408 110.8169408  29.8970000
  32.3889408 110.7699408  33.8460000  33.1819408 111.3059408  33.8470000
  32.6729408 109.9199408  34.1820000  39.6549408 114.0029408  60.1860000
  39.0479408 114.5939408  59.7410000  40.5229408 114.3469408  59.9750000
  34.4319408 118.7859408  56.2340000  34.8979408 118.1089408  55.7430000
  33.7839408 119.1269408  55.6170000  41.7599408 113.1179408  38.5430000
  41.6899408 113.8819408  37.9720000  42.0759408 112.4179408  37.9710000
  44.5309408 116.0489408  31.8910000  45.1549408 116.0429408  31.1650000
  44.9719408 115.5639408  32.5890000  31.5889408  97.8679408  35.1380000
  31.9129408  97.0799408  34.7030000  32.3749408  98.2939408  35.4810000
  34.3779408  91.6949408  46.6380000  33.4469408  91.8319408  46.4640000
  34.7679408  91.5709408  45.7730000  41.0189408  92.1809408  48.1460000
  40.7569408  93.1019408  48.1390000  41.6919408  92.1279408  48.8240000
  36.8749408 116.9259408  39.7580000  37.0919408 117.8089408  40.0560000
  37.0169408 116.9499408  38.8120000  42.2769408  99.0759408  56.9600000
  41.8759408  99.8269408  56.5240000  42.9859408  99.4519408  57.4820000
  38.3539408  96.3839408  33.5020000  39.0179408  96.9059408  33.0520000
  37.9879408  96.9769408  34.1590000  37.7939408 103.7699408  37.0920000
  37.1589408 103.5089408  37.7590000  38.3649408 103.0079408  36.9930000
  39.0859408  92.8069408  42.3010000  39.2659408  93.2629408  41.4790000
  39.7729408  93.1059408  42.8980000  37.6489408 107.3009408  42.5020000
  37.1329408 107.8939408  43.0490000  37.6139408 106.4609408  42.9600000
  37.2079408  98.2029408  59.8520000  37.3599408  98.7419408  60.6280000
  38.0649408  98.1409408  59.4310000  40.4099408 115.8839408  56.7950000
  40.4019408 116.2829408  55.9250000  39.6159408 116.2129408  57.2170000
  41.1919408 116.2969408  31.5580000  41.2509408 117.2469408  31.6600000
  41.6389408 115.9449408  32.3270000  34.6869408  93.6109408  42.3470000
  33.8339408  93.9499408  42.0730000  35.2309408  94.3909408  42.4540000
  43.1469408 102.3189408  57.0580000  43.5739408 102.0469408  56.2450000
  43.8619408 102.4039408  57.6880000  41.3659408 110.8169408  42.9800000
  41.3449408 111.5859408  42.4090000  42.2869408 110.5579408  42.9990000
  45.5709408  94.5019408  53.2080000  46.1229408  95.1429408  52.7600000
  45.2669408  93.9189408  52.5130000  34.9169408 104.0799408  36.0540000
  35.2429408 103.2809408  36.4690000  34.3959408 104.5079408  36.7330000
  41.9419408  94.9309408  48.4310000  42.8109408  95.3169408  48.3240000
  41.7659408  94.9919408  49.3700000  32.9999408 113.7209408  34.9930000
  32.5599408 113.1309408  35.6050000  33.7909408 113.2499408  34.7310000
  39.3909408  95.9979408  43.5600000  38.4679408  95.8209408  43.7410000
  39.5449408  95.6099408  42.6990000  36.4589408 109.0469408  44.2110000
  35.7969408 108.9559408  44.8960000  37.0899408 109.6709408  44.5690000
  42.7269408  94.7419408  43.0350000  43.5559408  94.2759408  42.9230000
  42.3699408  94.4009408  43.8560000  37.3769408 118.8119408  31.6800000
  36.6809408 118.2869408  31.2850000  37.2869408 118.6599408  32.6210000
  36.0069408  90.8799408  34.4630000  36.8559408  90.4709408  34.2940000
  36.1609408  91.8149408  34.3310000  39.4119408  98.7209408  36.5640000
  39.9009408  98.4549408  37.3430000  40.0189408  99.2819408  36.0810000
  39.0729408 100.0809408  39.9790000  39.3089408 100.3209408  40.8750000
  38.1399408  99.8699408  40.0250000  38.6629408 113.0849408  35.7270000
  39.1639408 112.7029408  36.4480000  39.3049408 113.2099408  35.0280000
  32.7639408 100.3209408  45.9390000  32.1979408 100.7929408  45.3280000
  32.1579408  99.8679408  46.5260000  33.7929408  95.9289408  48.5460000
  34.5359408  95.3939408  48.2680000  33.0419408  95.5539408  48.0850000
  37.2649408  95.4869408  40.7700000  36.6499408  96.0649408  40.3180000
  37.6409408  94.9459408  40.0760000  34.4899408  94.3149408  38.6110000
  33.8189408  93.6769408  38.8510000  34.7519408  94.0669408  37.7250000
  53.6789408 109.2509408  55.6230000  52.9449408 108.9459408  56.1550000
  54.0749408 109.9529408  56.1400000  33.9959408 100.0319408  49.2360000
  34.7059408  99.4889408  48.8920000  34.1359408 100.8909408  48.8370000
  40.6809408 101.2849408  30.4750000  40.9629408 101.9649408  29.8630000
  40.5939408 101.7389408  31.3140000  36.1979408 118.7859408  37.3920000
  35.6229408 119.3219408  37.9370000  36.9389408 119.3569408  37.1890000
  37.3569408 104.9479408  44.1060000  36.7409408 104.6609408  44.7800000
  37.7119408 104.1349408  43.7450000  31.5759408  91.8369408  42.3790000
  31.6699408  91.3979408  41.5340000  31.7809408  92.7539408  42.1980000
  39.7979408 103.5629408  50.7020000  39.9119408 102.6129408  50.6900000
  40.2249408 103.8659408  49.9000000  35.8779408 101.1339408  58.3530000
  36.6849408 101.2089408  58.8610000  35.1959408 100.9759408  59.0060000
  40.1429408  98.5439408  32.9460000  40.7999408  98.6049408  32.2530000
  40.5939408  98.8529408  33.7320000  34.7069408 105.4199408  53.1280000
  34.5639408 105.8999408  52.3120000  34.9709408 106.0909408  53.7570000
  32.9149408 106.4549408  44.3630000  33.5279408 107.1049408  44.7050000
  32.2449408 106.3749408  45.0420000  35.0659408 102.1979408  48.1450000
  35.8319408 101.7159408  47.8330000  34.6889408 102.5859408  47.3550000
  34.4699408  96.9909408  51.0950000  34.3759408  96.7169408  50.1820000
  34.4599408  97.9469408  51.0610000  34.3569408 114.6489408  43.1330000
  35.1819408 115.0809408  42.9100000  33.8739408 115.2999408  43.6410000
  36.0859408 104.8579408  41.4430000  35.4669408 105.3769408  40.9300000
  35.9959408 105.1919408  42.3360000  38.5019408  94.1379408  38.6120000
  38.8629408  94.4539408  37.7840000  38.9809408  93.3279408  38.7890000
  39.2219408 119.9579408  49.5540000  39.1209408 119.3189408  48.8490000
  39.7729408 120.6449408  49.1780000  35.8979408 116.1729408  45.7840000
  34.9769408 116.4009408  45.6590000  36.2559408 116.1269408  44.8980000
  34.1719408  98.0399408  36.5580000  33.5999408  98.3309408  37.2680000
  34.3229408  98.8259408  36.0330000  33.5469408 119.1949408  44.3880000
  33.4529408 118.7309408  43.5560000  34.0779408 119.9629408  44.1760000
  37.6459408 105.5889408  30.5610000  38.1379408 104.9059408  31.0160000
  38.1499408 106.3889408  30.7110000  39.7719408  92.8839408  35.6410000
  40.6209408  92.7349408  36.0590000  39.7999408  92.3549408  34.8440000
  42.9919408  96.0789408  50.9050000  43.2669408  96.9929408  50.8340000
  43.4549408  95.7489408  51.6750000  43.9919408 100.0189408  59.0960000
  44.7189408  99.4589408  59.3680000  44.3539408 100.5539408  58.3890000
  45.0069408  97.1169408  58.0480000  45.2319408  97.0419408  58.9750000
  44.1499408  96.6969408  57.9740000  35.7419408 101.5499408  42.2860000
  35.5099408 101.7689408  43.1890000  36.5849408 101.9799408  42.1450000
  31.1999408 107.8119408  59.4490000  31.9049408 108.0979408  60.0290000
  31.6469408 107.3699408  58.7280000  32.4759408 103.4329408  41.5170000
  32.9669408 103.3179408  42.3310000  32.3929408 104.3819408  41.4200000
  34.0809408 100.9719408  40.1910000  33.3579408 101.5829408  40.3280000
  34.6869408 101.1519408  40.9110000  32.4699408  92.2689408  39.4860000
  31.9209408  93.0069408  39.2190000  31.8819408  91.5139408  39.4670000
  33.0199408 106.0899408  41.5960000  32.9749408 106.1599408  42.5500000
  33.1089408 106.9939408  41.2930000  39.4949408 105.9309408  33.8740000
  39.7659408 105.7989408  34.7830000  39.9059408 106.7569408  33.6190000
  38.0449408 108.2839408  47.2700000  37.8129408 107.5769408  47.8720000
  38.2419408 107.8409408  46.4450000  38.0199408  91.0509408  44.0630000
  38.1869408  91.8039408  43.4960000  38.5849408  91.1939408  44.8240000
  42.3299408 113.4389408  34.0320000  41.5709408 112.9229408  33.7610000
  43.0749408 113.0059408  33.6160000  33.8559408 118.2669408  36.1100000
  33.5329408 119.1219408  35.8250000  34.7399408 118.4389408  36.4320000
  32.1229408 112.1309408  47.8600000  32.8419408 111.8089408  47.3180000
  32.3069408 113.0629408  47.9750000  35.8029408 106.0779408  34.3120000
  36.5949408 105.6419408  33.9980000  35.6179408 105.6609408  35.1540000
  36.7349408 100.4089408  46.9120000  37.6709408 100.2119408  46.8740000
  36.3309408  99.5979408  47.2210000  39.1019408 109.7299408  52.1000000
  39.8669408 109.3959408  51.6300000  39.3469408 110.6199408  52.3550000
  38.8879408 110.4159408  31.5990000  38.2829408 109.7779408  31.9770000
  38.7719408 111.2019408  32.1330000  38.1309408 107.3219408  39.6840000
  38.1119408 108.2399408  39.4110000  37.9969408 107.3509408  40.6310000
  41.8609408  98.8709408  30.8180000  41.4729408  99.7019408  30.5460000
  42.8049408  99.0259408  30.7920000  44.0549408 110.7059408  49.8650000
  43.1819408 110.5199408  50.2090000  44.1139408 110.1809408  49.0660000
  44.7409408 108.3739408  58.8420000  45.0239408 109.2489408  58.5730000
  45.2609408 108.1829408  59.6220000  37.7279408 103.2519408  56.7680000
  37.4999408 102.7349408  57.5410000  38.4259408 103.8349408  57.0650000
  48.8059408 108.6449408  59.5420000  49.1739408 107.7629408  59.4910000
  49.4979408 109.2139408  59.2050000  34.4319408  89.9699408  39.1520000
  34.9539408  90.3289408  39.8690000  33.7079408  90.5879408  39.0490000
  33.1979408 105.2869408  37.9950000  32.5999408 105.4139408  37.2590000
  32.7259408 104.7069408  38.5910000  36.3509408 102.5299408  50.8020000
  35.7639408 102.6359408  50.0530000  36.8079408 103.3679408  50.8690000
  32.1939408  92.4329408  45.0200000  31.9859408  92.0149408  44.1840000
  32.7589408  93.1699408  44.7850000  35.2889408 106.5969408  31.2440000
  36.1979408 106.4009408  31.4730000  35.0949408 106.0109408  30.5130000
  35.9609408  91.2959408  40.8390000  36.7089408  91.8909408  40.8830000
  35.2019408  91.8499408  41.0230000  47.9639408  94.7779408  30.3340000
  47.0519408  95.0459408  30.4500000  48.1979408  94.3589408  31.1630000
  36.0819408 101.7559408  33.1260000  35.2619408 102.2489408  33.0890000
  36.7199408 102.3779408  33.4750000  36.3819408  93.8779408  36.2780000
  36.8239408  94.1609408  37.0780000  36.7769408  94.4079408  35.5850000
  44.8989408 116.5689408  38.8670000  44.8359408 116.8249408  39.7880000
  44.8469408 115.6129408  38.8800000  36.4319408  99.2409408  39.6680000
  35.6539408  99.7959408  39.6110000  36.1929408  98.4429408  39.1960000
  35.8949408 109.3489408  40.4970000  35.2319408 109.5939408  41.1420000
  35.4229408 108.8129408  39.8600000  38.3729408 113.4639408  43.1860000
  39.1639408 113.9339408  42.9220000  37.6539408 113.9979408  42.8490000
  38.0019408 103.8009408  34.2870000  38.6839408 104.4149408  34.0160000
  37.9259408 103.9279408  35.2330000  38.5919408 110.0079408  41.6570000
  37.6919408 109.6829408  41.6220000  38.5009408 110.9549408  41.7650000
  38.5059408 119.5499408  34.7200000  39.2599408 119.8159408  34.1930000
  38.6619408 119.9459408  35.5770000  34.0379408 117.2559408  39.9530000
  34.9729408 117.0479408  39.9550000  33.9999408 118.1869408  39.7350000
  41.6449408  98.1269408  53.6070000  41.9199408  97.4939408  54.2710000
  41.9309408  98.9729408  53.9510000  37.8239408  99.7049408  31.9020000
  38.6989408  99.3949408  32.1340000  37.3699408  99.7939408  32.7400000
  37.4669408  99.5539408  56.4890000  37.0789408 100.1509408  57.1290000
  37.8689408 100.1279408  55.8380000  35.3919408  99.8369408  51.5440000
  34.4879408 100.0839408  51.7380000  35.8819408 100.6569408  51.5990000
  35.3759408  95.8509408  34.5400000  35.9379408  96.5929408  34.3170000
  35.1269408  96.0039408  35.4520000  51.4999408 110.8909408  51.6630000
  51.5299408 111.8449408  51.5890000  51.2169408 110.5929408  50.7990000
  37.8799408 116.0279408  53.7110000  38.5289408 116.2299408  53.0370000
  37.0729408 115.8609408  53.2240000  44.9759408 105.1649408  53.9550000
  45.6309408 105.7189408  53.5300000  45.4869408 104.4979408  54.4130000
  42.1429408 103.0499408  53.4810000  42.7959408 103.1569408  52.7890000
  41.8279408 103.9369408  53.6530000  39.2999408  94.7489408  46.6790000
  38.4779408  94.7659408  46.1890000  39.0309408  94.7099408  47.5970000
  40.2849408  99.8869408  42.5980000  40.8409408  99.1149408  42.4900000
  40.1829408  99.9779408  43.5460000  41.5199408 100.6549408  54.6330000
  41.7749408 101.4879408  54.2350000  40.7539408 100.3749408  54.1320000
  42.8319408  96.0959408  55.8560000  42.2219408  96.7999408  56.0740000
  42.2899408  95.4319408  55.4300000  45.8959408 109.4069408  54.8660000
  45.5879408 108.8379408  55.5710000  46.8499408 109.3899408  54.9430000
  33.0429408 102.8729408  55.6090000  33.5349408 102.7249408  54.8020000
  32.7319408 102.0039408  55.8640000  44.6799408 119.2389408  56.7010000
  45.3729408 119.7719408  56.3100000  44.3379408 119.7769408  57.4150000
  35.6739408 113.6199408  30.0820000  36.0949408 113.8689408  30.9050000
  36.3839408 113.2649408  29.5480000  33.0279408 108.2679408  31.4330000
  33.1569408 109.2159408  31.4620000  33.8729408 107.9189408  31.1520000
  35.6639408  98.1749408  48.2520000  36.2629408  97.8789408  48.9380000
  35.1889408  97.3859408  47.9920000  35.9109408  96.2639408  53.1760000
  35.8639408  95.3079408  53.1610000  35.2579408  96.5469408  52.5370000
  33.5549408 102.7819408  33.2750000  32.7219408 102.4139408  33.5720000
  33.4619408 103.7249408  33.4110000  42.0799408  92.2879408  55.6550000
  41.8949408  92.3419408  56.5920000  41.6749408  93.0719408  55.2840000
  33.4729408  99.6029408  57.1470000  33.7089408  98.7169408  56.8730000
  34.0979408  99.8149408  57.8400000  39.1499408 119.6889408  52.5040000
  39.9349408 120.2339408  52.5540000  39.1679408 119.3219408  51.6200000
  40.2899408 106.9219408  56.2360000  40.6129408 106.3839408  55.5120000
  40.5349408 107.8159408  55.9980000  35.6959408  96.5609408  57.9650000
  36.2729408  96.7839408  57.2350000  36.2299408  96.7069408  58.7460000
  39.0229408 100.0999408  53.4030000  38.3649408 100.6929408  53.7660000
  38.5369408  99.3039408  53.1870000  32.6359408  99.1879408  42.6550000
  32.1249408  99.8089408  43.1730000  31.9839408  98.6069408  42.2650000
  40.1199408  91.7629408  33.4120000  39.5699408  91.8339408  32.6310000
  40.9739408  92.0939408  33.1340000  45.5569408 115.5499408  56.2860000
  44.8219408 114.9969408  56.0220000  46.0899408 115.6339408  55.4950000
  37.1549408  97.1399408  55.5410000  36.6739408  97.0259408  54.7220000
  37.2739408  98.0859408  55.6200000  44.3109408 100.8199408  55.0000000
  43.4729408 100.6859408  54.5580000  44.6099408  99.9379408  55.2200000
  35.1569408 101.4689408  45.1180000  34.3929408 101.0489408  45.5120000
  35.9069408 101.0229408  45.5130000  41.4229408  91.4139408  52.3640000
  41.7979408  91.2949408  53.2370000  42.1729408  91.6199408  51.8060000
  34.3739408  92.0349408  52.5920000  35.0449408  92.5869408  52.9950000
  33.7539408  92.6539408  52.2080000  37.8019408 106.5439408  37.0640000
  37.6149408 105.6139408  37.1890000  37.8329408 106.9049408  37.9500000
  39.5459408 104.8449408  57.9910000  39.9689408 105.6099408  57.6000000
  39.0599408 105.1949408  58.7380000  31.7749408  90.6259408  58.9360000
  32.5749408  91.0719408  59.2140000  31.1079408  91.3129408  58.9280000
  33.0389408 117.9559408  58.5700000  33.2659408 117.7619408  57.6600000
  32.9049408 118.9029408  58.5870000  38.8229408 109.2789408  58.8730000
  39.0599408 108.7649408  59.6450000  38.2279408 109.9509408  59.2050000
  40.8119408  94.5099408  54.7060000  39.9129408  94.5729408  55.0290000
  40.7219408  94.4639408  53.7540000  38.1589408 101.4079408  59.5170000
  39.1069408 101.5379408  59.5250000  37.9899408 100.8219408  60.2550000
  37.4109408  98.2469408  52.5390000  37.0039408  97.3889408  52.6570000
  36.8979408  98.6629408  51.8460000  35.9589408  92.4859408  59.6520000
  35.4029408  92.4139408  60.4270000  35.4749408  92.0279408  58.9650000
  44.6579408  91.6439408  54.3280000  45.2989408  91.5509408  55.0330000
  43.8909408  92.0299408  54.7510000  38.1889408 107.1529408  53.5900000
  39.0689408 107.0679408  53.9560000  37.9749408 108.0809408  53.6910000
  37.2109408  98.0059408  35.3860000  36.6419408  98.7579408  35.5510000
  37.9689408  98.1489408  35.9520000  34.8949408 108.8529408  36.4910000
  35.2919408 109.6979408  36.7040000  35.4089408 108.5259408  35.7530000
  30.8779408 119.1329408  31.2170000  31.1779408 119.6449408  30.4660000
  31.0379408 118.2229408  30.9670000  36.9089408  94.5699408  45.4710000
  36.4269408  95.1219408  44.8560000  36.2819408  94.3849408  46.1700000
  31.6169408  99.6609408  55.2060000  32.3259408  99.5369408  55.8370000
  32.0529408  99.9679408  54.4120000  54.0269408 109.3799408  51.4100000
  54.2849408 108.4959408  51.6720000  53.1719408 109.5119408  51.8210000
  35.1149408  94.0059408  56.8730000  34.1869408  94.1409408  56.6820000
  35.3489408  94.7299408  57.4530000  34.5679408 102.7609408  53.3450000
  34.5269408 103.7069408  53.4870000  34.8839408 102.6679408  52.4460000
  52.2929408 107.8109408  53.8080000  52.1829408 107.0259408  54.3450000
  52.7159408 108.4419408  54.3890000  39.7159408 107.2639408  30.6440000
  40.4809408 106.8889408  30.2080000  40.0779408 107.7609408  31.3780000
  39.6429408 117.8269408  54.9720000  39.4569408 117.5769408  54.0670000
  40.3899408 118.4219408  54.9080000  37.2109408 101.8149408  54.3940000
  36.3699408 102.1359408  54.0660000  37.5599408 102.5409408  54.9100000
  30.1669408  98.8079408  50.3710000  29.8829408  98.0049408  50.8070000
  29.9809408  99.5029408  51.0020000  44.3869408 110.9349408  31.0510000
  43.5169408 111.2199408  30.7720000  44.8489408 110.7409408  30.2360000
  33.5569408  97.1909408  56.0440000  34.3569408  96.6719408  56.1280000
  33.4109408  97.2549408  55.1000000  30.9909408 104.1799408  59.6390000
  31.5389408 104.9439408  59.4570000  30.9489408 104.1369408  60.5940000
  41.3459408 103.1939408  58.8840000  40.7059408 103.7409408  58.4290000
  41.9039408 102.8469408  58.1880000  30.8749408  93.4179408  53.9600000
  30.5559408  92.5409408  53.7490000  31.6379408  93.5389408  53.3940000
  45.9109408 117.6449408  50.9300000  45.4609408 116.9469408  50.4540000
  45.2979408 117.8989408  51.6190000  45.5579408  94.1889408  56.1150000
  44.8629408  94.8469408  56.1260000  45.7909408  94.1009408  55.1910000
  47.6369408 120.0739408  52.6510000  47.4279408 119.3739408  52.0330000
  47.3079408 119.7569408  53.4920000  39.3779408  98.0839408  58.2570000
  38.8019408  98.1769408  57.4980000  40.1869408  98.5259408  58.0000000
  37.9469408  97.0969408  49.7360000  37.9239408  96.1409408  49.7090000
  38.7869408  97.3059408  50.1460000  46.8989408 119.9439408  35.6780000
  46.7499408 119.2089408  36.2740000  46.6159408 119.6199408  34.8230000
  39.8299408 117.2289408  35.4010000  38.9329408 117.4469408  35.1470000
  40.3679408 117.5429408  34.6740000  48.4289408 119.3959408  58.3290000
  47.9429408 118.5779408  58.2260000  48.7299408 119.3839408  59.2380000
  31.1219408  96.0539408  39.6410000  30.6489408  96.3209408  38.8530000
  31.9209408  96.5809408  39.6320000  41.1519408 112.9069408  50.7830000
  41.1849408 111.9589408  50.9060000  40.5209408 113.0349408  50.0740000
  41.0869408 115.7069408  37.3250000  40.8939408 116.1889408  38.1280000
  40.7599408 116.2699408  36.6230000  32.6749408 108.7829408  40.9760000
  33.1839408 109.3299408  41.5740000  33.0549408 108.9529408  40.1140000
  32.1679408  94.6769408  42.0900000  31.6919408  95.0179408  41.3330000
  31.8439408  95.1909408  42.8290000  39.7219408 118.0699408  38.6160000
  39.4219408 118.0619408  37.7080000  39.1469408 118.6979408  39.0530000
  41.7279408 110.3879408  51.2710000  41.6209408 109.5149408  50.8940000
  42.3419408 110.2629408  51.9960000  58.0529408 115.8899408  42.2050000
  58.2489408 116.7309408  42.6180000  57.0989408 115.8779408  42.1250000
  34.9999408 119.5199408  48.2440000  35.1339408 119.6689408  49.1800000
  34.6149408 120.3359408  47.9240000  40.5059408 109.8669408  36.1100000
  39.8559408 109.5139408  35.5030000  39.9949408 110.3779408  36.7380000
  33.3269408 114.6049408  49.3680000  34.2059408 114.2289408  49.3230000
  33.4169408 115.4729408  48.9750000  30.0379408 111.4779408  34.6990000
  30.9309408 111.1549408  34.5830000  29.4899408 110.8369408  34.2450000
  45.7609408 115.8819408  34.7460000  45.6409408 115.0999408  34.2060000
  44.9199408 115.9989408  35.1890000  47.6079408 111.4719408  51.4500000
  47.1129408 112.1989408  51.8280000  47.2049408 110.6879408  51.8230000
  42.8429408 114.9729408  51.9030000  42.4879408 114.2539408  51.3800000
  43.3269408 115.5089408  51.2750000  34.6779408 112.4899408  46.5850000
  35.2769408 113.2359408  46.6160000  35.2109408 111.7439408  46.8610000
  35.7979408 111.3969408  36.7650000  36.4539408 111.7799408  37.3470000
  34.9819408 111.4349408  37.2640000  60.0089408 111.9419408  59.8560000
  59.3139408 112.0199408  60.5100000  59.9439408 111.0409408  59.5420000
  47.4849408 117.6719408  37.7400000  46.6389408 117.2889408  37.9700000
  47.8719408 117.0489408  37.1250000  32.3099408 108.7869408  35.5240000
  31.6629408 108.6259408  36.2120000  33.1549408 108.6519408  35.9530000
  44.3059408 118.7819408  37.3720000  44.7559408 118.1469408  37.9280000
  43.9669408 118.2639408  36.6420000  54.3189408 114.7159408  44.1060000
  54.8969408 113.9829408  43.8980000  54.5489408 115.3919408  43.4680000
  36.4959408 108.9039408  32.3800000  35.9039408 109.5189408  31.9470000
  35.9969408 108.0889408  32.4350000  35.8519408 117.3879408  59.9390000
  35.2559408 117.5509408  59.2070000  35.3619408 116.8089408  60.5230000
  46.4369408 109.0669408  51.2430000  46.5039408 108.3559408  50.6060000
  45.6939408 109.5899408  50.9420000  37.2649408 113.0889408  33.3920000
  37.5729408 113.8519408  32.9040000  37.6459408 113.1919408  34.2640000
  40.3759408 113.4779408  47.1180000  39.6279408 113.2069408  47.6500000
  40.5139408 112.7509408  46.5100000  45.4449408 115.1009408  44.0140000
  46.2459408 115.2109408  43.5020000  45.0809408 114.2679408  43.7140000
  39.1669408  95.4379408  35.7480000  38.8509408  95.6709408  34.8750000
  39.4189408  94.5179408  35.6750000  34.2729408 110.1469408  42.5690000
  33.8439408 110.9559408  42.8460000  35.0339408 110.0699408  43.1450000
  33.2469408 105.4839408  33.2100000  33.6359408 106.1419408  32.6340000
  33.7999408 105.4919408  33.9910000  34.1789408 107.7809408  38.9290000
  34.2309408 108.1619408  38.0530000  33.5919408 107.0319408  38.8310000
  41.1639408 119.3629408  44.0990000  41.9599408 119.0219408  44.5070000
  40.8289408 120.0059408  44.7250000  41.2709408 119.4239408  30.7540000
  41.1439408 119.1009408  29.8620000  40.7259408 120.2099408  30.8040000
  36.7049408 114.8669408  37.0240000  37.3139408 114.3839408  36.4660000
  36.0519408 115.2189408  36.4190000  30.7809408 107.7779408  33.0700000
  31.3749408 107.8329408  33.8190000  31.3059408 108.0689408  32.3250000
  36.9129408 116.0559408  43.0170000  36.7609408 116.9919408  43.1450000
  37.8609408 115.9539408  43.1010000  39.9689408 115.5049408  41.5150000
  40.0609408 116.2039408  42.1630000  39.5309408 115.9229408  40.7730000
  40.9059408 112.2719408  31.9450000  40.8709408 111.3879408  31.5790000
  40.4339408 112.8129408  31.3120000  30.6149408 104.7429408  32.4330000
  29.9859408 105.4539408  32.5520000  31.4659408 105.1429408  32.6100000
  45.8529408 113.8829408  37.9390000  45.9139408 113.7729408  36.9900000
  46.7569408 114.0099408  38.2250000  37.6779408 105.6369408  48.2270000
  37.3809408 105.6059408  49.1360000  38.4549408 105.0779408  48.2080000
  34.3649408 112.5619408  40.9050000  33.8259408 113.0119408  41.5560000
  35.0559408 113.1889408  40.6910000  41.6299408 113.2589408  41.2250000
  41.9139408 113.2529408  40.3110000  40.9499408 113.9319408  41.2610000
  33.3079408 112.3489408  44.1740000  33.6449408 113.1049408  43.6930000
  33.8179408 112.3319408  44.9840000  49.2209408 118.9019408  39.3070000
  48.6819408 119.2899408  39.9960000  48.5979408 118.6619408  38.6210000
  30.9919408  89.9949408  55.7370000  31.7769408  90.0659408  55.1940000
  31.2419408  90.3889408  56.5730000  30.7819408 106.6869408  45.9170000
  30.1779408 106.2529408  46.5200000  30.3069408 107.4619408  45.6180000
  36.7389408 114.1779408  39.9850000  36.8389408 115.0859408  40.2700000
  36.8689408 114.2079408  39.0370000  40.4329408  91.4439408  45.7220000
  40.5989408  91.4719408  46.6650000  40.7079408  92.3039408  45.4050000
  41.3089408 109.2199408  55.3400000  42.0399408 109.3309408  54.7320000
  41.4799408 109.8519408  56.0380000  33.3309408 109.3729408  48.2010000
  32.4419408 109.5659408  48.5000000  33.8949408 109.6769408  48.9110000
  33.1059408 111.9459408  38.1800000  33.4189408 112.7029408  38.6760000
  32.1519408 112.0229408  38.2010000  45.4369408 113.2539408  50.0090000
  46.0059408 113.1119408  49.2530000  45.0009408 112.4129408  50.1430000
  37.0619408 111.4499408  39.2770000  37.2629408 112.2119408  39.8210000
  36.5489408 110.8769408  39.8470000  42.4839408 116.0199408  59.2340000
  42.1589408 115.9759408  60.1330000  41.7009408 116.1619408  58.7020000
  42.0659408 118.8869408  39.7040000  41.2279408 118.5389408  39.3980000
  42.5209408 119.1529408  38.9050000  41.2699408 116.0949408  46.5260000
  41.8939408 116.0249408  45.8040000  41.2699408 115.2259408  46.9290000
  40.8659408 108.4719408  32.7640000  40.6719408 109.4039408  32.8690000
  41.5619408 108.2989408  33.3990000  33.1739408  90.5829408  34.5740000
  34.1289408  90.6499408  34.5680000  32.8779408  91.4079408  34.9580000
  39.4209408 111.4549408  37.9740000  38.8169408 111.4819408  38.7160000
  40.2109408 111.8929408  38.2920000  58.8549408 113.9129408  40.4620000
  58.1329408 113.2899408  40.3720000  58.5459408 114.5469408  41.1090000
  39.8059408 105.8759408  51.7940000  38.8959408 106.1509408  51.9020000
  39.7489408 104.9669408  51.5000000  37.9939408 111.3219408  44.6600000
  38.8919408 111.3319408  44.9910000  37.9779408 112.0019408  43.9870000
  55.4639408 115.1709408  38.5830000  54.5769408 115.4189408  38.3240000
  55.9009408 114.9499408  37.7600000  54.4759408 110.8279408  49.0240000
  55.3199408 111.0919408  48.6570000  54.7019408 110.2359408  49.7420000
  38.2409408 109.7249408  55.2630000  38.0479408 109.1849408  56.0300000
  39.1959408 109.7239408  55.2030000  59.8429408 116.8959408  38.9490000
  59.2369408 116.1979408  38.6960000  60.4319408 116.4839408  39.5810000
  43.2739408 116.0209408  35.5640000  43.0779408 115.8549408  36.4860000
  42.5129408 115.6839408  35.0920000  37.9659408 113.2009408  54.6000000
  38.6309408 112.7009408  54.1270000  37.9549408 114.0549408  54.1660000
  37.1999408  92.1849408  49.7970000  37.7519408  91.4189408  49.6400000
  36.4489408  91.8439408  50.2840000  41.4439408 105.8639408  53.9440000
  42.0879408 106.3889408  53.4680000  40.7859408 105.6379408  53.2870000
  36.7689408 118.4729408  44.2330000  37.3599408 119.2059408  44.4070000
  35.9639408 118.6979408  44.6990000  39.7699408 112.6009408  56.6800000
  39.2829408 112.6389408  55.8560000  39.7329408 113.4939408  57.0220000
  31.4539408 119.7109408  45.8930000  31.4329408 120.6619408  46.0040000
  32.2849408 119.5399408  45.4500000  36.8329408 110.5419408  47.8900000
  37.4509408 109.8449408  47.6710000  36.2749408 110.1639408  48.5700000
  48.8679408 117.6099408  33.3490000  49.7269408 117.3279408  33.6620000
  48.2529408 117.2769408  34.0020000  38.3579408  94.1779408  31.8600000
  38.4489408  94.8209408  32.5630000  37.5369408  93.7239408  32.0540000
  41.2019408 118.7629408  33.4690000  41.2119408 119.5939408  33.9450000
  41.6049408 118.9659408  32.6240000  36.1329408 113.5059408  50.1000000
  36.3269408 113.2889408  49.1880000  36.9599408 113.8419408  50.4480000
  40.2109408 118.4339408  41.9620000  41.0079408 118.2959408  41.4500000
  40.5229408 118.6039408  42.8510000  47.3879408 112.3639408  57.4260000
  47.6389408 112.8729408  58.1970000  48.1209408 112.4709408  56.8190000
  31.6809408 118.4499408  37.5820000  32.3499408 117.9409408  37.1260000
  30.8959408 117.9039408  37.5440000  55.9239408 112.7609408  43.2040000
  55.7279408 112.7439408  42.2670000  56.0819408 111.8459408  43.4340000
  49.3099408 116.6769408  44.0320000  49.6109408 116.8749408  44.9190000
  49.3619408 115.7229408  43.9680000  33.3539408 114.7089408  39.0660000
  33.7559408 115.5449408  39.3010000  32.5179408 114.9489408  38.6650000
  31.4129408 116.7549408  30.3960000  32.1889408 117.0679408  29.9310000
  31.2349408 115.8959408  30.0140000  59.6089408 117.8679408  45.3230000
  60.1049408 117.1339408  44.9590000  60.2649408 118.5469408  45.4810000
  31.5119408 109.0599408  43.6060000  30.8219408 109.4449408  43.0660000
  32.0049408 108.5029408  43.0030000  33.9449408 116.8669408  48.1460000
  33.7629408 116.8199408  47.2080000  34.4529408 117.6719408  48.2510000
  43.2799408 112.0519408  45.6120000  42.3279408 111.9589408  45.6370000
  43.5199408 111.8259408  44.7140000  42.9559408 111.3659408  36.3640000
  43.4859408 111.8059408  35.6990000  42.4029408 110.7609408  35.8690000
  33.4409408  96.1809408  31.9050000  34.0029408  96.8479408  31.5100000
  33.9759408  95.7989408  32.6010000  47.0119408 113.5979408  30.0990000
  47.4669408 114.3679408  30.4400000  46.1409408 113.9179408  29.8630000
  37.1949408 112.4749408  58.1130000  36.6079408 112.3649408  57.3650000
  38.0739408 112.3999408  57.7400000  30.1369408  93.5589408  35.8370000
  29.9919408  92.6449408  35.5950000  30.0729408  93.5669408  36.7920000
  45.3399408 110.8529408  58.1340000  44.7079408 111.5289408  57.8920000
  46.1799408 111.1839408  57.8140000  56.3759408 113.1479408  52.1470000
  55.9069408 113.8409408  51.6830000  57.2419408 113.1299408  51.7400000
  38.6959408  94.9359408  56.2190000  38.5659408  94.8349408  57.1620000
  37.9669408  95.4869408  55.9330000  35.0549408  90.9999408  57.6170000
  35.2369408  91.8089408  57.1400000  34.9239408  90.3429408  56.9330000
  42.6159408 112.0489408  54.5270000  42.7129408 111.7699408  55.4380000
  43.1399408 111.4229408  54.0270000  34.7479408 116.4299408  32.0810000
  34.8309408 115.7089408  32.7050000  33.9279408 116.8609408  32.3190000
  39.2759408 116.4629408  44.7030000  39.7309408 116.2569408  45.5190000
  39.1089408 117.4049408  44.7520000  53.3719408 119.3539408  46.9710000
  53.3079408 118.3989408  46.9860000  52.9949408 119.6059408  46.1290000
  46.2559408 113.4489408  52.4580000  45.9049408 113.5529408  51.5740000
  45.4959408 113.5559408  53.0320000  36.9949408 105.9949408  50.7340000
  36.4209408 105.7369408  51.4560000  36.9939408 106.9519408  50.7580000
  46.4109408 117.9309408  46.0400000  46.7929408 118.4529408  46.7440000
  46.9819408 118.0879408  45.2870000  44.1419408 114.1589408  54.0840000
  43.6309408 113.3779408  54.2940000  43.5819408 114.6599408  53.4910000
  43.5379408 106.9969408  52.3460000  44.1009408 106.3869408  52.8230000
  43.4289408 106.5979408  51.4830000  43.4829408 109.4799408  53.5240000
  43.6019408 108.6709408  53.0260000  44.1959408 109.4769408  54.1620000
  35.5179408 110.8639408  30.6340000  34.6129408 110.9029408  30.3240000
  35.8689408 111.7369408  30.4600000  33.9199408 113.7329408  57.9040000
  33.7749408 112.7969408  57.7640000  34.6069408 113.7729408  58.5690000
  53.3409408 115.3679408  56.2690000  53.8739408 115.7849408  55.5910000
  52.6439408 115.9989408  56.4470000  51.0999408 117.1969408  56.2780000
  50.7519408 117.3389408  55.3980000  51.3499408 118.0699408  56.5810000
  44.6979408 115.7839408  49.6430000  44.8279408 115.7939408  48.6940000
  44.6369408 114.8559408  49.8670000  41.6579408 119.4879408  55.1230000
  41.5199408 120.2759408  55.6490000  42.5939408 119.3049408  55.2060000
  35.6269408 115.5319408  52.0670000  36.1349408 115.9269408  51.3580000
  35.2669408 114.7309408  51.6870000  38.4599408  92.5539408  54.9290000
  38.0919408  91.8119408  55.4080000  38.4689408  93.2689408  55.5650000
  33.5699408 110.9729408  57.9310000  32.6959408 110.8599408  57.5580000
  34.1639408 110.6609408  57.2500000  54.5209408 107.0009408  52.3890000
  55.1209408 106.3069408  52.6620000  53.6929408 106.7869408  52.8180000
  41.6979408 110.0789408  59.7730000  40.8099408 109.8989408  59.4640000
  42.0089408 109.2409408  60.1130000  40.6369408 111.0749408  45.7480000
  41.0509408 110.3259408  46.1760000  40.8889408 110.9959408  44.8280000
  37.8009408 107.6069408  56.9660000  37.9509408 108.0929408  57.7770000
  38.6709408 107.3129408  56.6970000  44.6939408 117.6009408  59.4540000
  43.7959408 117.3609408  59.6810000  44.6029408 118.1929408  58.7070000
  44.6019408 118.8039408  53.5100000  45.1489408 118.3629408  54.1610000
  44.6489408 119.7299408  53.7450000  38.0119408 115.6129408  59.1090000
  37.3469408 115.9979408  59.6800000  37.5689408 115.4959408  58.2690000
  47.2359408 115.8399408  54.2300000  47.9919408 115.7569408  53.6490000
  46.6439408 115.1399408  53.9550000  46.3829408 115.0279408  46.5230000
  45.9809408 114.9789408  45.6560000  46.6939408 115.9299408  46.5930000
  29.8979408 115.6919408  52.9550000  29.7849408 114.8959408  53.4740000
  30.8379408 115.7319408  52.7780000  38.7329408 115.2859408  32.7840000
  39.4529408 115.3559408  32.1580000  38.2929408 116.1349408  32.7390000
  35.4859408 107.0279408  55.4590000  35.3769408 106.1209408  55.7470000
  36.3439408 107.2849408  55.7970000  39.9189408  93.5539408  51.8240000
  39.1149408  93.4609408  52.3350000  40.5089408  92.8899408  52.1800000
  41.3379408 118.9519408  57.8980000  40.3879408 118.9459408  57.7800000
  41.6909408 118.7969408  57.0220000  38.4839408 102.6569408  42.7750000
  38.7579408 103.2109408  42.0450000  39.2489408 102.1129408  42.9640000
  34.8689408 112.0059408  34.4930000  35.4839408 112.3369408  33.8380000
  35.3879408 111.9349408  35.2950000  31.1839408 113.8679408  32.2820000
  31.7039408 113.3719408  31.6500000  31.6219408 113.7219408  33.1200000
  31.2759408 110.9209408  52.3260000  31.5259408 110.2529408  51.6880000
  31.9619408 111.5849408  52.2600000  37.4129408 116.2019408  50.0570000
  37.4249408 116.6489408  49.2110000  38.2419408 116.4469408  50.4690000
  40.8449408  92.1909408  58.1290000  39.9649408  91.9919408  57.8090000
  40.7209408  92.4099408  59.0520000  42.1609408 111.0939408  57.1720000
  41.3539408 111.5889408  57.0280000  42.4389408 111.3399408  58.0540000
  51.6459408 115.8579408  49.2480000  51.8839408 115.4889408  48.3980000
  51.1379408 115.1669408  49.6750000  31.9099408 116.0429408  56.4380000
  31.0299408 116.3809408  56.2760000  31.8099408 115.4669408  57.1960000
  56.5009408 113.4099408  33.8900000  57.2679408 113.2959408  33.3290000
  56.1529408 114.2679408  33.6490000  42.1069408 118.3369408  52.1520000
  42.8629408 118.3479408  52.7390000  41.9139408 119.2609408  51.9920000
  36.9049408 119.6589408  54.4020000  37.4049408 119.1249408  55.0190000
  37.5369408 119.8999408  53.7250000  45.8789408  92.1039408  51.6990000
  45.5149408  91.9559408  52.5720000  46.7829408  91.7959408  51.7610000
  38.8949408 111.6709408  49.8570000  38.2309408 111.5909408  49.1720000
  38.9859408 110.7849408  50.2080000  49.3409408 109.3989408  50.3370000
  49.0289408 109.1119408  49.4790000  48.5439408 109.5879408  50.8320000
  44.5349408  93.3569408  58.7370000  44.1719408  92.4879408  58.5610000
  45.0539408  93.5609408  57.9590000  43.0649408  91.5539408  50.0000000
  43.9649408  91.6039408  50.3230000  42.9399408  90.6309408  49.7800000
  38.2529408  91.2669408  58.1430000  37.5959408  91.4079408  58.8250000
  38.1889408  90.3329408  57.9390000  40.1359408 112.0139408  53.1660000
  40.2959408 112.4989408  52.3560000  40.9959408 111.9489408  53.5810000
  45.1319408 107.2609408  56.3960000  45.2409408 107.6919408  57.2440000
  44.5449408 106.5269408  56.5740000  37.2789408 116.4109408  56.2950000
  36.3539408 116.2849408  56.0820000  37.7199408 116.4259408  55.4460000
  44.4529408 110.9099408  33.7780000  44.3679408 110.7669408  32.8350000
  45.0229408 110.2019408  34.0770000  37.1399408 117.5469408  47.6840000
  36.8289408 117.2759408  46.8200000  36.5409408 118.2459408  47.9460000
  45.7979408 118.7229408  33.2530000  45.6619408 117.7969408  33.0530000
  45.1299408 119.1799408  32.7420000  39.0859408  91.1759408  31.1750000
  38.4019408  90.5059408  31.1510000  38.6729408  91.9539408  30.8020000
  38.4229408 118.5869408  57.7970000  38.0969408 118.0029408  57.1120000
  38.0209408 118.2599408  58.6020000  43.1219408 105.2349408  56.3590000
  42.9999408 104.2859408  56.3360000  43.2029408 105.4879408  55.4390000
  35.5019408  90.1759408  50.8970000  35.1519408  90.8029408  51.5300000
  35.3639408  89.3209408  51.3060000  40.7739408  96.2109408  59.9660000
  41.1209408  96.8889408  60.5450000  40.1539408  96.6719408  59.4000000
  30.0609408  96.7279408  47.5830000  30.7789408  97.3319408  47.7720000
  29.7179408  97.0209408  46.7390000  58.2209408 113.3229408  44.8680000
  57.5639408 113.4529408  44.1850000  59.0359408 113.1649408  44.3900000
  45.8699408  97.0169408  30.6600000  45.2029408  96.8519408  31.3270000
  46.4569408  97.6569408  31.0610000  30.4629408 112.8909408  43.2580000
  30.2129408 111.9829408  43.0880000  31.3599408 112.8359408  43.5870000
  48.4659408 113.8039408  39.1880000  48.8379408 114.6159408  38.8460000
  48.9149408 113.1109408  38.7040000  35.6159408  93.9159408  47.9620000
  36.1299408  93.4149408  48.5940000  35.1099408  93.2559408  47.4870000
  35.4309408  98.9249408  43.3460000  34.5449408  98.8439408  43.6980000
  35.4069408  99.7229408  42.8170000  53.4509408 106.6139408  47.9200000
  53.0099408 107.2459408  47.3520000  52.8429408 106.4799408  48.6470000
  31.2429408 115.3819408  41.0890000  31.8839408 114.7989408  40.6820000
  30.4409408 114.8619408  41.1370000  30.5589408  93.4369408  32.1060000
  30.9039408  93.9419408  31.3700000  29.6199408  93.3699408  31.9320000
  31.6959408 104.5629408  35.6540000  31.0739408 104.5129408  34.9270000
  31.7619408 103.6639408  35.9750000  57.0549408 110.3509408  43.5330000
  56.2059408 110.0659408  43.1960000  57.4329408 109.5649408  43.9270000
  52.5319408 113.9129408  46.2690000  53.3199408 113.8259408  46.8050000
  52.8589408 114.0669408  45.3830000  30.1739408 101.8329408  41.6060000
  30.4409408 101.6049408  42.4960000  30.8999408 102.3529408  41.2630000
  48.3429408 115.7469408  36.0430000  48.8659408 114.9999408  35.7510000
  47.5969408 115.7659408  35.4440000  34.7929408 115.8129408  35.2480000
  34.3529408 116.6369408  35.4600000  34.0799408 115.1949408  35.0880000
  53.2419408 113.1659408  40.4920000  52.9709408 113.7249408  39.7630000
  52.5509408 112.5069408  40.5570000  55.7379408 116.5139408  46.0000000
  55.5399408 115.6189408  45.7260000  54.8859408 116.8929408  46.2160000
  30.0309408  96.3349408  37.2890000  29.4529408  95.8939408  36.6650000
  30.7089408  96.7369408  36.7450000  35.4109408  91.6389408  44.1010000
  36.3529408  91.5459408  43.9540000  35.1199408  92.2449408  43.4200000
  42.0409408  93.7889408  30.3090000  41.4489408  94.5119408  30.1020000
  42.7159408  93.8299408  29.6310000  38.5499408  94.3989408  49.4280000
  39.1569408  94.0959408  50.1040000  37.8149408  93.7869408  49.4750000
  47.0459408  99.7769408  60.0950000  46.9329408 100.7139408  60.2500000
  47.3599408  99.7189408  59.1920000  34.1849408 109.2609408  45.5620000
  33.2749408 109.4589408  45.3410000  34.2369408 109.3929408  46.5080000
  51.5719408 106.0879408  49.4610000  51.2589408 106.5549408  50.2350000
  52.0279408 105.3219408  49.8100000  32.6959408  94.0899408  51.8710000
  32.3059408  93.5869408  51.1560000  32.9999408  94.8979408  51.4560000
  59.8669408 112.4849408  53.7190000  60.5199408 112.0109408  53.2050000
  59.1229408 112.5889408  53.1250000  52.9719408 119.7709408  36.6800000
  52.3179408 120.1079408  37.2920000  53.6439408 119.3789408  37.2390000
  32.6369408  98.9269408  38.6340000  33.0599408  99.1289408  39.4690000
  31.7709408  99.3279408  38.7010000  31.9669408  98.2519408  48.4270000
  32.8179408  98.6559408  48.5950000  31.4089408  98.5619408  49.1400000
  36.0659408  93.5049408  33.3350000  35.7129408  94.3689408  33.5490000
  35.3759408  93.0859408  32.8200000  46.8479408 119.6619408  40.6200000
  46.3209408 119.0759408  41.1630000  46.2789408 119.8849408  39.8840000
  35.8869408 100.2809408  35.3640000  35.6359408 100.8369408  36.1020000
  35.8729408 100.8659408  34.6070000  52.0509408 117.8479408  51.3780000
  52.2919408 117.3129408  50.6220000  52.4079408 118.7149408  51.1820000
  56.0049408 118.4509408  50.5770000  55.3879408 117.8689408  50.1320000
  55.6789408 119.3319408  50.3920000  50.4669408 117.5979408  46.5020000
  50.0149408 118.4079408  46.7400000  49.9129408 116.9009408  46.8520000
  34.0989408 107.2339408  50.9040000  33.5579408 107.6299408  50.2210000
  34.7849408 107.8809408  51.0720000  53.0409408 115.6989408  37.7480000
  52.2169408 116.1149408  37.4950000  53.0589408 114.8799408  37.2530000
  31.2549408  96.8109408  44.1630000  30.3669408  96.7379408  44.5100000
  31.5479408  97.6809408  44.4330000  31.2039408 108.3319408  38.1590000
  31.7869408 108.4599408  38.9080000  30.4139408 107.9419408  38.5330000
  40.8509408 108.0429408  50.5640000  41.5169408 107.8769408  49.8970000
  40.6929408 107.1879408  50.9640000  57.1119408 117.8559408  44.3000000
  56.6299408 117.3489408  44.9530000  58.0099408 117.8809408  44.6300000
  35.1689408 104.5189408  46.3780000  35.8409408 104.4369408  47.0540000
  34.4199408 104.9079408  46.8290000  34.4059408 100.8699408  31.0480000
  33.6999408 101.4429408  31.3470000  35.1239408 101.0339408  31.6600000
  38.5139408 108.9249408  34.6940000  38.4449408 107.9949408  34.9100000
  37.8739408 109.0569408  33.9950000  30.9149408 102.1979408  33.5130000
  30.7669408 102.8599408  32.8380000  30.2449408 101.5339408  33.3490000
  59.4079408 110.4649408  42.4830000  58.5159408 110.4729408  42.8300000
  59.2959408 110.4509408  41.5330000  48.5539408 108.9259408  54.6820000
  48.7939408 108.2999408  55.3660000  49.3529408 109.4279408  54.5250000
  30.9789408 101.7839408  36.4660000  30.8059408 101.5689408  35.5490000
  30.8379408 100.9619408  36.9360000  49.4299408 119.0179408  30.8690000
  50.3869408 119.0099408  30.8630000  49.1899408 118.4979408  31.6360000
  59.4029408 111.3029408  46.8030000  59.1189408 112.1149408  46.3830000
  60.2919408 111.4879408  47.1050000  37.9229408  90.9289408  37.0610000
  38.3859408  91.4039408  37.7510000  37.6119408  91.6119408  36.4670000
  43.7059408  90.8079408  58.7940000  42.8089408  90.6749408  59.0990000
  44.2449408  90.6919408  59.5770000  32.6029408 106.3849408  57.6050000
  32.3689408 106.0419408  56.7430000  33.5349408 106.1849408  57.6980000
  30.9759408 103.9229408  56.7960000  31.2779408 104.0099408  57.7000000
  31.7439408 103.6149408  56.3150000  30.6829408  94.4809408  56.5800000
  30.8219408  94.3349408  55.6450000  30.8769408  95.4089408  56.7100000
  58.0309408 115.7699408  30.2010000  57.6519408 116.3839408  29.5710000
  58.7909408 116.2309408  30.5560000  32.9169408 100.2559408  52.9200000
  32.3259408 100.8239408  52.4250000  33.4999408 100.8599408  53.3800000
  58.7599408 118.1839408  33.0480000  58.8759408 117.2849408  33.3560000
  59.4779408 118.3219408  32.4310000  32.6489408  97.0719408  53.3300000
  32.9159408  97.8839408  52.8980000  32.1039408  96.6239408  52.6820000
  52.4329408 114.4709408  30.8190000  51.6569408 114.3989408  31.3750000
  52.5059408 113.6149408  30.3970000  33.2349408 108.6979408  54.7910000
  32.6099408 107.9739408  54.8150000  34.0829408 108.2909408  54.9680000
  35.1829408 105.2449408  58.7310000  35.2499408 104.6459408  57.9880000
  36.0909408 105.4169408  58.9820000  53.0549408 116.8219408  45.9560000
  52.1179408 116.8199408  46.1500000  53.1779408 116.0819408  45.3610000
  31.7139408  94.7479408  34.2270000  31.3929408  94.3309408  33.4270000
  31.0859408  94.4889408  34.9010000  56.7119408 118.8939408  31.2240000
  57.5319408 118.5429408  31.5710000  56.3319408 119.3829408  31.9540000
  54.2559408 113.5429408  48.3680000  54.2759408 112.7569408  48.9150000
  55.1489408 113.6239408  48.0320000  57.4089408 118.0439408  58.3580000
  56.8659408 118.5749408  58.9420000  58.0689408 118.6529408  58.0260000
  36.1619408 111.5309408  55.3790000  36.6229408 112.3089408  55.0660000
  36.8009408 110.8229408  55.2930000  32.5169408  93.7909408  58.9940000
  32.3399408  94.7299408  59.0370000  32.0049408  93.4829408  58.2460000
  32.2539408 105.9619408  54.7120000  31.4929408 105.4689408  54.4070000
  33.0069408 105.4519408  54.4130000  50.6599408 110.6539408  58.5530000
  50.8069408 110.9329408  59.4560000  50.5649408 111.4699408  58.0610000
  30.1209408  97.1739408  55.0360000  31.0009408  97.3079408  54.6820000
  29.6779408  98.0119408  54.9010000  35.2779408 101.5559408  37.5480000
  34.8449408 100.9229408  38.1220000  35.5749408 102.2489408  38.1370000
  36.0519408  96.0389408  42.9900000  36.7619408  95.9259408  42.3580000
  35.9799408  96.9859408  43.1040000  56.9689408 116.1229408  52.1750000
  57.8909408 116.2139408  52.4190000  56.8059408 116.8519408  51.5770000
  30.5089408  99.7659408  43.8980000  29.8269408  99.7809408  44.5700000
  30.2249408  99.0889408  43.2830000  51.3509408 113.5839408  57.1550000
  52.0519408 114.1379408  56.8110000  50.8199408 114.1729408  57.6900000
  33.1369408 105.9089408  47.4420000  33.2879408 106.7359408  47.8990000
  32.3239408 106.0479408  46.9560000  29.8739408  99.2279408  57.4500000
  30.4399408  99.4969408  56.7260000  30.4529408  98.7489408  58.0430000
  33.9139408 104.3159408  50.0960000  33.3239408 105.0459408  50.2810000
  33.8699408 104.2069408  49.1460000  35.4609408 104.3169408  56.1370000
  34.8509408 103.6819408  55.7600000  36.2679408 103.8219408  56.2740000
  36.1759408  93.6459408  53.8610000  37.0319408  93.4339408  54.2340000
  35.6269408  93.8449408  54.6190000  30.6509408 104.1239408  53.5250000
  29.7119408 103.9479408  53.5810000  30.9809408 103.4709408  52.9080000
  32.0539408 102.5049408  51.6720000  32.7779408 103.0489408  51.3630000
  31.3189408 102.7389408  51.1060000  34.6389408  98.2059408  30.3610000
  34.5499408  99.1419408  30.5400000  35.5799408  98.0399408  30.4160000
  33.5789408  95.2939408  44.7230000  34.2869408  95.7469408  44.2640000
  32.8469408  95.9109408  44.7040000  44.3679408  98.5949408  50.4910000
  44.4269408  99.5469408  50.5680000  44.3979408  98.4279408  49.5490000
  32.4339408 119.4479408  51.3220000  31.7669408 118.7629408  51.3040000
  32.1439408 120.0829408  50.6670000  49.6399408 107.0629408  51.6660000
  50.2749408 107.2579408  52.3550000  49.4069408 107.9179408  51.3040000
  31.7099408  94.5589408  47.3620000  31.2679408  94.1129408  46.6390000
  31.0809408  95.2169408  47.6580000  33.7859408  93.1389408  35.5410000
  34.7399408  93.2159408  35.5740000  33.5029408  93.8839408  35.0110000
  58.6129408 110.5529408  50.3810000  59.2029408 110.8629408  51.0670000
  58.5069408 111.3039408  49.7970000  48.5159408 115.7009408  30.7170000
  48.6129408 116.6029408  31.0230000  49.1969408 115.5999408  30.0510000
  54.5779408 116.1839408  49.7680000  55.3119408 115.7339408  49.3490000
  53.8019408 115.8429408  49.3220000  51.9709408 119.7309408  34.2900000
  51.4919408 120.5529408  34.3860000  52.2929408 119.5359408  35.1700000
  49.7779408 113.9979408  43.5600000  50.2779408 114.1409408  42.7560000
  50.3799408 113.5269408  44.1360000  50.3289408 114.1079408  32.8240000
  49.6049408 114.5969408  32.4350000  50.2499408 114.2699408  33.7640000
  31.0329408 115.6039408  43.9710000  30.2089408 115.2399408  44.2930000
  31.2309408 115.0919408  43.1870000  31.9339408 119.6879408  48.6420000
  32.2469408 118.7839408  48.6550000  31.5109408 119.7829408  47.7880000
  31.1559408 108.4609408  50.0400000  30.2709408 108.7809408  49.8660000
  31.0349408 107.5459408  50.2950000  32.0799408 118.3339408  33.5080000
  31.6479408 118.7749408  32.7770000  32.4669408 119.0439408  34.0210000
  55.5019408 115.3549408  58.7860000  56.3499408 114.9159408  58.7100000
  55.0439408 115.1329408  57.9750000  49.9319408 113.5469408  35.4520000
  49.4589408 112.7149408  35.4690000  50.8459408 113.3059408  35.6030000
  51.5259408 117.0239408  33.9340000  51.8329408 116.7029408  33.0860000
  51.8009408 117.9409408  33.9570000  32.7359408 113.2419408  51.7040000
  32.8889408 113.6109408  50.8350000  32.5469408 113.9999408  52.2570000
  33.0529408 116.7679408  45.5720000  32.4119408 116.2939408  45.0430000
  33.1159408 117.6289408  45.1590000  31.2079408 114.3789408  58.9760000
  30.7519408 113.5889408  59.2650000  32.1189408 114.1049408  58.8680000
  55.6729408 110.8899408  53.2500000  55.9379408 111.6929408  52.8020000
  55.0279408 110.4909408  52.6670000  49.9409408 115.9629408  58.3800000
  49.0549408 116.3189408  58.3170000  50.3819408 116.2749408  57.5900000
  52.7679408 109.3119408  47.3790000  52.3009408 110.0629408  47.0110000
  53.4259408 109.6989408  47.9570000  49.7129408 111.5399408  37.5910000
  49.1179408 110.8719408  37.2500000  50.5109408 111.0599408  37.8100000
  57.4709408 115.8359408  36.5070000  57.7579408 114.9329408  36.6370000
  57.3959408 115.9299408  35.5570000  57.1539408 115.2229408  48.8610000
  57.2309408 114.5909408  48.1470000  57.9429408 115.7599408  48.7930000
  47.0249408 112.7099408  47.6690000  46.8809408 112.0149408  47.0260000
  46.7759408 113.5139408  47.2140000  41.7949408  94.1809408  45.4660000
  41.0579408  94.3869408  46.0420000  42.4969408  94.7619408  45.7580000
  54.6279408 119.7129408  33.2650000  53.6809408 119.5999408  33.3410000
  54.9819408 119.3039408  34.0550000  54.1549408 118.4689408  38.6710000
  54.9869408 117.9959408  38.6860000  53.5239408 117.8559408  39.0480000
  57.6299408 118.3429408  37.5860000  57.5669408 117.3909408  37.5050000
  57.5549408 118.5079408  38.5260000  56.7179408 113.2369408  47.1170000
  57.0469408 113.5299408  46.2670000  56.4409408 112.3329408  46.9690000
  58.6429408 113.4169408  32.1320000  59.5469408 113.7219408  32.2000000
  58.2299408 114.0239408  31.5180000  48.1019408 119.3339408  43.8490000
  48.8249408 119.9569408  43.9170000  48.5209408 118.5029408  43.6270000
  30.8829408 105.8929408  50.9960000  31.0199408 105.6469408  51.9110000
  30.0429408 105.4959408  50.7640000  59.7119408 117.0349408  48.1520000
  59.5509408 117.4989408  47.3300000  59.2639408 117.5589408  48.8150000
  37.1339408 113.6299408  47.5170000  36.9599408 114.4419408  47.0430000
  37.4829408 113.0339408  46.8540000  34.8129408 110.6049408  50.3340000
  34.8989408 111.5329408  50.5520000  34.8869408 110.1529408  51.1740000
  55.3029408 116.0099408  41.7730000  55.0519408 115.5969408  40.9470000
  54.6769408 116.7259408  41.8830000  45.4609408 113.4619408  33.0360000
  45.9439408 113.2799408  32.2300000  45.3659408 112.6069408  33.4560000
  43.5109408 117.9189408  45.3630000  44.4469408 117.8499408  45.5500000
  43.2639408 117.0499408  45.0470000  55.1669408 115.1589408  31.8110000
  54.2559408 114.8679408  31.8270000  55.3879408 115.2049408  30.8810000
  51.1539408 117.1659408  36.5480000  51.4189408 116.9389408  35.6570000
  51.5359408 118.0299408  36.7000000  47.0539408 116.8609408  58.2050000
  46.3929408 117.1089408  58.8510000  46.5519408 116.4939408  57.4770000
  32.8799408 117.4629408  42.2670000  32.0239408 117.0379408  42.2150000
  33.2679408 117.3299408  41.4030000  30.1709408 115.8719408  33.6420000
  30.6029408 115.3299408  32.9810000  30.8439408 116.4929408  33.9200000
  50.8209408 115.7819408  41.5460000  50.6039408 115.9449408  40.6280000
  50.7959408 116.6459408  41.9560000  57.5929408 118.9229408  40.4380000
  57.4519408 119.3709408  41.2720000  58.5019408 118.6269408  40.4740000
  39.8979408 118.3239408  47.5680000  40.5479408 117.6229408  47.5210000
  39.0609408 117.8869408  47.4100000  30.6229408 115.0849408  49.8260000
  31.5509408 114.8679408  49.9130000  30.5909408 115.7159408  49.1080000
  42.2699408 106.4249408  58.7760000  42.9509408 107.0969408  58.8060000
  42.4539408 105.9319408  57.9760000  54.9399408 118.5519408  42.8940000
  55.6679408 118.0659408  43.2810000  55.3499408 119.3119408  42.4820000
  56.2609408 110.5759408  46.5330000  55.9599408 109.7359408  46.1870000
  57.1519408 110.4039408  46.8380000  30.9209408 119.9589408  39.9480000
  31.4189408 119.3979408  39.3520000  30.0779408 120.0829408  39.5120000
  30.1289408  90.2789408  36.1440000  30.1339408  90.2069408  35.1890000
  30.6739408  89.5509408  36.4420000  50.1059408 116.3139408  38.9570000
  50.3829408 116.3689408  38.0430000  49.8789408 117.2129408  39.1940000
  53.6379408 119.1839408  57.3740000  53.8629408 118.6559408  58.1400000
  53.7149408 120.0889408  57.6760000  51.2849408 111.4409408  33.2030000
  52.1909408 111.6019408  33.4660000  50.9289408 112.3109408  33.0260000
  37.8459408  94.6539408  58.8310000  38.2209408  94.7389408  59.7070000
  37.3629408  93.8279408  58.8550000  30.5509408 113.0329408  38.3860000
  30.1859408 113.4379408  37.6000000  29.8569408 113.1109408  39.0410000
  49.0939408 115.2559408  47.6310000  48.8449408 115.5209408  48.5160000
  48.5189408 114.5169408  47.4310000  54.6889408 116.4959408  53.9890000
  55.4609408 116.4079408  53.4300000  54.0209408 115.9579408  53.5630000
  49.7889408 117.3129408  53.2930000  50.5389408 117.1429408  52.7230000
  49.6029408 118.2449408  53.1720000  56.0789408 118.6559408  35.3270000
  56.5179408 118.9459408  36.1270000  56.5309408 117.8469408  35.0860000
  51.9989408 117.5469408  31.0180000  52.9239408 117.6119408  30.7810000
  51.7279408 116.6889408  30.6910000  47.6129408 110.7449408  33.2240000
  47.4149408 109.8939408  32.8320000  47.7729408 111.3209408  32.4770000
  58.7029408 113.2359408  50.3090000  59.5569408 113.6369408  50.1500000
  58.0819408 113.8059408  49.8540000  49.1839408 112.3919408  49.3730000
  48.8759408 112.0519408  50.2130000  48.3959408 112.4469408  48.8330000
  52.4529408 112.8319408  54.3870000  53.2899408 113.2969408  54.4070000
  51.9209408 113.3219408  53.7600000  44.6139408 114.3099408  58.8680000
  43.7559408 114.7329408  58.8890000  45.0889408 114.7639408  58.1720000
  31.4839408 110.5129408  56.1210000  31.9909408 109.8839408  55.6070000
  30.8779408 110.9039408  55.4910000  59.0999408 116.4319408  55.9860000
  58.5239408 116.4859408  56.7480000  58.5919408 115.9469408  55.3350000
  57.4289408 114.6289408  54.5640000  56.6139408 114.5409408  54.0710000
  57.3679408 113.9629408  55.2490000  56.4519408 108.2429408  53.9800000
  56.5979408 109.0739408  53.5290000  55.5169408 108.0689408  53.8690000
  32.8429408 115.7119408  53.1490000  33.7689408 115.4969408  53.0340000
  32.8479408 116.5679408  53.5780000  53.8769408 111.7659408  57.1800000
  54.5629408 112.2469408  56.7180000  53.0929408 112.3049408  57.0720000
  59.9059408 118.0329408  51.8660000  59.3759408 118.3819408  52.5830000
  60.0419408 117.1129408  52.0930000  57.5559408 113.3009408  58.4550000
  58.1949408 113.8009408  58.9620000  58.0589408 112.9369408  57.7270000
  57.8099408 107.9179408  56.6380000  57.3599408 108.3039408  55.8870000
  57.8709408 106.9859408  56.4280000  50.8229408 110.4389408  54.5460000
  51.4419408 111.1659408  54.6110000  50.8099408 110.2179408  53.6140000
  33.7959408  92.6399408  31.5360000  33.1589408  93.0979408  30.9870000
  33.2689408  92.0539408  32.0780000  59.0779408 112.0099408  56.4940000
  59.7929408 111.5059408  56.8830000  59.4689408 112.4279408  55.7270000
  56.4579408 112.1029408  55.8250000  57.2999408 111.6859408  56.0080000
  56.1359408 111.6579408  55.0400000  54.2699408 119.2149408  54.6630000
  54.2869408 118.9489408  55.5820000  54.4699408 118.4149408  54.1780000
  49.3969408 112.8279408  55.2380000  49.5079408 112.1059408  54.6190000
  50.1119408 112.7199408  55.8640000  59.0199408 118.8129408  54.3330000
  59.8619408 119.1639408  54.6250000  58.8459408 118.0819408  54.9260000
  46.8359408  91.2099408  57.0900000  47.4759408  90.5949408  57.4500000
  47.1229408  92.0669408  57.4050000  56.1579408 116.4039408  33.9090000
  55.6669408 117.2129408  34.0520000  55.8099408 116.0549408  33.0890000
  47.0399408 118.4119408  54.8180000  47.5809408 118.5059408  55.6020000
  47.1749408 117.5059408  54.5410000  53.6199408 114.9529408  52.0760000
  52.8519408 114.5989408  51.6270000  54.1499408 115.3379408  51.3780000
  51.2529408 113.5169408  50.7880000  50.5179408 113.0819408  50.3570000
  50.8559408 113.9929408  51.5170000  33.1729408 119.6979408  53.8650000
  32.8949408 119.4999408  52.9710000  33.6089408 120.5479408  53.7990000
  32.7039408 111.1609408  30.5350000  31.8629408 111.6189408  30.5440000
  32.8899408 111.0209408  29.6060000  48.5739408 116.5729408  49.9790000
  49.3969408 117.0059408  50.2050000  47.9349408 116.9379408  50.5900000
  51.0189408 111.9559408  47.3460000  50.6409408 112.0609408  48.2200000
  51.4569408 112.7889408  47.1720000  35.0389408 110.2599408  53.3180000
  35.4329408 110.8059408  53.9980000  34.2329408 109.9279408  53.7140000
  54.5659408 117.9129408  59.5880000  54.9279408 117.0679408  59.3220000
  55.1819408 118.2429408  60.2420000  52.3159408  90.6029408  30.0200000
  52.8489408  90.3259408  30.7650000  52.9519408  90.8169408  29.3370000
  32.0639408  92.4419408  49.6400000  32.0359408  93.1009408  48.9460000
  31.3919408  91.8059408  49.3950000  46.0279408 119.2599408  48.5900000
  45.0909408 119.1729408  48.4130000  46.1359408 118.9249408  49.4800000
  50.3859408 114.2079408  53.2040000  50.0829408 115.1069408  53.3300000
  49.8389408 113.6859408  53.7910000  30.8689408  96.2169408  30.9050000
  31.1979408  96.6709408  30.1290000  31.6129408  96.1979408  31.5060000
  34.5629408 115.8619408  55.9740000  33.6279408 116.0279408  56.0910000
  34.7009408 114.9909408  56.3480000  40.0009408 116.2329408  51.9690000
  40.8279408 115.7619408  52.0740000  40.2609408 117.1449408  51.8330000
  43.1139408 119.2469408  48.1040000  43.4209408 118.6579408  47.4150000
  42.3449408 119.6749408  47.7280000  34.1209408 103.6749408  73.7610000
  34.0209408 104.4239408  74.3480000  34.6659408 103.0579408  74.2490000
  49.4019408 107.0039408  63.4620000  49.3069408 106.1259408  63.8320000
  48.6369408 107.1089408  62.8970000  36.9639408 117.2739408  64.1330000
  36.2589408 116.7169408  64.4630000  36.9889408 118.0129408  64.7410000
  51.1249408  91.1489408  81.7350000  50.9649408  90.2999408  81.3230000
  51.6349408  91.6379408  81.0890000  36.7109408 108.7099408  81.4700000
  36.3839408 109.3649408  82.0880000  37.6529408 108.8729408  81.4250000
  41.8849408 101.9679408  72.0810000  41.2899408 101.2449408  72.2800000
  42.7569408 101.5759408  72.1090000  35.8789408  96.9689408  68.7010000
  35.4139408  96.1719408  68.4480000  35.9029408  97.4959408  67.9020000
  45.1049408 107.8279408  75.6050000  44.2939408 107.6459408  75.1300000
  45.7899408 107.7719408  74.9380000  30.6359408 104.0729408  68.5360000
  29.8129408 104.3929408  68.1640000  30.9089408 103.3719408  67.9450000
  48.8559408 108.6129408  69.2840000  48.4689408 108.1719408  70.0410000
  48.1489408 109.1559408  68.9360000  39.0639408  98.6819408  77.8260000
  38.4579408  98.2489408  78.4280000  39.3939408  97.9759408  77.2700000
  41.2259408 101.3479408  65.7040000  40.6419408 101.7979408  66.3140000
  41.6789408 100.6969408  66.2400000  47.4669408 105.2269408  77.9080000
  47.9479408 105.1439408  78.7320000  48.1319408 105.1079408  77.2300000
  35.6149408 103.6859408  68.9500000  35.7649408 103.7169408  69.8950000
  34.7539408 104.0859408  68.8300000  59.3079408 108.9599408  75.2020000
  59.6479408 109.5329408  75.8900000  59.8979408 109.0979408  74.4610000
  42.9309408 115.5519408  74.1980000  43.8639408 115.3599408  74.1090000
  42.5239408 115.1209408  73.4470000  48.3629408 111.3589408  60.6810000
  47.7089408 112.0489408  60.5670000  48.2789408 110.8169408  59.8970000
  40.6849408 105.9839408  66.6650000  41.1339408 106.8249408  66.7490000
  39.8769408 106.0929408  67.1670000  58.7999408  99.9389408  75.7730000
  57.8609408  99.9999408  75.5990000  58.8569408  99.5959408  76.6650000
  32.3889408 110.7699408  63.8460000  33.1819408 111.3059408  63.8470000
  32.6729408 109.9199408  64.1820000  47.9779408 104.4559408  70.6650000
  47.2519408 104.3639408  70.0480000  47.7039408 103.9559408  71.4340000
  43.5299408 104.6779408  60.5350000  42.9009408 103.9769408  60.7060000
  43.0779408 105.2629408  59.9270000  46.9329408 112.0279408  73.3670000
  47.2779408 112.9039408  73.1980000  47.6629408 111.4399408  73.1730000
  41.7599408 113.1179408  68.5430000  41.6899408 113.8819408  67.9720000
  42.0759408 112.4179408  67.9710000  44.5309408 116.0489408  61.8910000
  45.1549408 116.0429408  61.1650000  44.9719408 115.5639408  62.5890000
  31.5889408  97.8679408  65.1380000  31.9129408  97.0799408  64.7030000
  32.3749408  98.2939408  65.4810000  34.3779408  91.6949408  76.6380000
  33.4469408  91.8319408  76.4640000  34.7679408  91.5709408  75.7730000
  41.0189408  92.1809408  78.1460000  40.7569408  93.1019408  78.1390000
  41.6919408  92.1279408  78.8240000  45.1549408  90.6799408  68.8720000
  44.7649408  91.4279408  68.4200000  45.0899408  89.9599408  68.2450000
  45.4189408 104.0349408  73.0950000  44.8099408 103.9809408  73.8320000
  44.8679408 104.2559408  72.3440000  36.8749408 116.9259408  69.7580000
  37.0919408 117.8089408  70.0560000  37.0169408 116.9499408  68.8120000
  58.5349408 105.5709408  67.6430000  58.4489408 106.1489408  66.8850000
  58.1879408 106.0809408  68.3750000  38.3539408  96.3839408  63.5020000
  39.0179408  96.9059408  63.0520000  37.9879408  96.9769408  64.1590000
  54.3849408  99.4109408  77.3650000  54.7209408  98.5179408  77.2950000
  54.2909408  99.5589408  78.3060000  37.7939408 103.7699408  67.0920000
  37.1589408 103.5089408  67.7590000  38.3649408 103.0079408  66.9930000
  39.0859408  92.8069408  72.3010000  39.2659408  93.2629408  71.4790000
  39.7729408  93.1059408  72.8980000  45.8509408 103.9929408  69.0110000
  45.1649408 104.5659408  68.6690000  45.4019408 103.1709408  69.2080000
  37.6489408 107.3009408  72.5020000  37.1329408 107.8939408  73.0490000
  37.6139408 106.4609408  72.9600000  41.1919408 116.2969408  61.5580000
  41.2509408 117.2469408  61.6600000  41.6389408 115.9449408  62.3270000
  34.6869408  93.6109408  72.3470000  33.8339408  93.9499408  72.0730000
  35.2309408  94.3909408  72.4540000  41.3659408 110.8169408  72.9800000
  41.3449408 111.5859408  72.4090000  42.2869408 110.5579408  72.9990000
  45.5709408  94.5019408  83.2080000  46.1229408  95.1429408  82.7600000
  45.2669408  93.9189408  82.5130000  44.5329408 109.5259408  67.8070000
  44.0209408 108.9609408  68.3850000  43.9069408 110.1799408  67.4950000
  34.9169408 104.0799408  66.0540000  35.2429408 103.2809408  66.4690000
  34.3959408 104.5079408  66.7330000  41.9419408  94.9309408  78.4310000
  42.8109408  95.3169408  78.3240000  41.7659408  94.9919408  79.3700000
  32.9999408 113.7209408  64.9930000  32.5599408 113.1309408  65.6050000
  33.7909408 113.2499408  64.7310000  39.3909408  95.9979408  73.5600000
  38.4679408  95.8209408  73.7410000  39.5449408  95.6099408  72.6990000
  36.4589408 109.0469408  74.2110000  35.7969408 108.9559408  74.8960000
  37.0899408 109.6709408  74.5690000  42.7269408  94.7419408  73.0350000
  43.5559408  94.2759408  72.9230000  42.3699408  94.4009408  73.8560000
  40.9189408 105.5149408  71.9010000  40.0709408 105.1079408  71.7250000
  40.7289408 106.4519408  71.9560000  41.2779408  98.6519408  69.3500000
  41.3409408  97.9429408  69.9910000  40.6729408  99.2789408  69.7440000
  37.3769408 118.8119408  61.6800000  36.6809408 118.2869408  61.2850000
  37.2869408 118.6599408  62.6210000  45.6899408 108.6069408  64.5490000
  45.8669408 108.6029408  63.6090000  46.2479408 107.9129408  64.9010000
  36.0069408  90.8799408  64.4630000  36.8559408  90.4709408  64.2940000
  36.1609408  91.8149408  64.3310000  39.4119408  98.7209408  66.5640000
  39.9009408  98.4549408  67.3430000  40.0189408  99.2819408  66.0810000
  40.9679408 108.3959408  75.9660000  41.6029408 107.8829408  75.4660000
  40.1389408 107.9329408  75.8490000  39.0729408 100.0809408  69.9790000
  39.3089408 100.3209408  70.8750000  38.1399408  99.8699408  70.0250000
  38.6629408 113.0849408  65.7270000  39.1639408 112.7029408  66.4480000
  39.3049408 113.2099408  65.0280000  42.1909408  93.0269408  66.6490000
  42.5829408  93.5069408  67.3790000  42.8259408  92.3399408  66.4440000
  32.7639408 100.3209408  75.9390000  32.1979408 100.7929408  75.3280000
  32.1579408  99.8679408  76.5260000  33.7929408  95.9289408  78.5460000
  34.5359408  95.3939408  78.2680000  33.0419408  95.5539408  78.0850000
  37.2649408  95.4869408  70.7700000  36.6499408  96.0649408  70.3180000
  37.6409408  94.9459408  70.0760000  34.4899408  94.3149408  68.6110000
  33.8189408  93.6769408  68.8510000  34.7519408  94.0669408  67.7250000
  48.2059408 101.1969408  71.0920000  48.7899408 101.1579408  70.3350000
  47.3289408 101.0939408  70.7250000  42.6159408  92.7419408  62.6460000
  42.2479408  93.1119408  61.8440000  43.2749408  93.3789408  62.9240000
  33.9959408 100.0319408  79.2360000  34.7059408  99.4889408  78.8920000
  34.1359408 100.8909408  78.8370000  43.6049408  99.6929408  63.1680000
  44.0819408  98.9459408  63.5280000  44.2209408 100.4239408  63.2310000
  40.6809408 101.2849408  60.4750000  40.9629408 101.9649408  59.8630000
  40.5939408 101.7389408  61.3140000  36.1979408 118.7859408  67.3920000
  35.6229408 119.3219408  67.9370000  36.9389408 119.3569408  67.1890000
  45.6389408  96.6119408  68.9870000  45.6199408  96.6119408  69.9440000
  46.5409408  96.8459408  68.7660000  46.1629408 110.3279408  69.8410000
  45.8969408 110.1039408  68.9500000  45.7949408 109.6309408  70.3840000
  48.8369408 109.6889408  73.6890000  49.6529408 109.8079408  74.1740000
  49.0429408 109.9709408  72.7980000  37.3569408 104.9479408  74.1060000
  36.7409408 104.6609408  74.7800000  37.7119408 104.1349408  73.7450000
  31.5759408  91.8369408  72.3790000  31.6699408  91.3979408  71.5340000
  31.7809408  92.7539408  72.1980000  39.7979408 103.5629408  80.7020000
  39.9119408 102.6129408  80.6900000  40.2249408 103.8659408  79.9000000
  42.6309408 103.1459408  74.3340000  42.2629408 103.3379408  73.4710000
  42.9819408 102.2589408  74.2530000  40.1429408  98.5439408  62.9460000
  40.7999408  98.6049408  62.2530000  40.5939408  98.8529408  63.7320000
  34.7069408 105.4199408  83.1280000  34.5639408 105.8999408  82.3120000
  34.9709408 106.0909408  83.7570000  32.9149408 106.4549408  74.3630000
  33.5279408 107.1049408  74.7050000  32.2449408 106.3749408  75.0420000
  39.9729408  91.6209408  69.1660000  40.8859408  91.7839408  68.9290000
  40.0159408  91.2549408  70.0490000  42.5159408  99.3919408  67.0440000
  42.9239408  98.9559408  66.2950000  42.6179408  98.7729408  67.7670000
  50.6819408 104.5549408  70.8580000  50.4699408 104.9719408  71.6930000
  49.8309408 104.3559408  70.4670000  35.0659408 102.1979408  78.1450000
  35.8319408 101.7159408  77.8330000  34.6889408 102.5859408  77.3550000
  34.4699408  96.9909408  81.0950000  34.3759408  96.7169408  80.1820000
  34.4599408  97.9469408  81.0610000  46.7989408  98.8369408  81.9130000
  46.1259408  98.2629408  81.5470000  47.3839408  98.2479408  82.3890000
  47.3339408  91.3149408  77.3720000  47.1459408  92.1649408  77.7700000
  46.5919408  90.7639408  77.6200000  34.3569408 114.6489408  73.1330000
  35.1819408 115.0809408  72.9100000  33.8739408 115.2999408  73.6410000
  36.0859408 104.8579408  71.4430000  35.4669408 105.3769408  70.9300000
  35.9959408 105.1919408  72.3360000  43.4409408 106.1729408  68.5040000
  43.3789408 105.9409408  67.5780000  42.7799408 106.8539408  68.6260000
  38.5019408  94.1379408  68.6120000  38.8629408  94.4539408  67.7840000
  38.9809408  93.3279408  68.7890000  39.2219408 119.9579408  79.5540000
  39.1209408 119.3189408  78.8490000  39.7729408 120.6449408  79.1780000
  35.8979408 116.1729408  75.7840000  34.9769408 116.4009408  75.6590000
  36.2559408 116.1269408  74.8980000  34.1719408  98.0399408  66.5580000
  33.5999408  98.3309408  67.2680000  34.3229408  98.8259408  66.0330000
  50.9309408  98.1219408  77.8530000  50.4899408  98.4399408  78.6410000
  51.2959408  98.9089408  77.4480000  33.5469408 119.1949408  74.3880000
  33.4529408 118.7309408  73.5560000  34.0779408 119.9629408  74.1760000
  37.6459408 105.5889408  60.5610000  38.1379408 104.9059408  61.0160000
  38.1499408 106.3889408  60.7110000  39.7719408  92.8839408  65.6410000
  40.6209408  92.7349408  66.0590000  39.7999408  92.3549408  64.8440000
  39.0259408 106.3989408  75.6100000  38.7289408 106.0099408  76.4320000
  38.4029408 106.0809408  74.9560000  54.9449408 100.7089408  82.4340000
  54.4059408 100.1399408  82.9830000  54.3479408 101.3989408  82.1430000
  42.9919408  96.0789408  80.9050000  43.2669408  96.9929408  80.8340000
  43.4549408  95.7489408  81.6750000  49.7759408 107.0209408  66.7930000
  49.6259408 107.7959408  66.2530000  49.1299408 107.0889408  67.4960000
  35.7419408 101.5499408  72.2860000  35.5099408 101.7689408  73.1890000
  36.5849408 101.9799408  72.1450000  45.3469408  97.8619408  73.5700000
  45.5059408  97.1419408  72.9600000  46.2199408  98.1279408  73.8590000
  43.9419408 117.7469408  71.2050000  43.6119408 117.6369408  72.0970000
  43.2129408 118.1429408  70.7270000  32.4759408 103.4329408  71.5170000
  32.9669408 103.3179408  72.3310000  32.3929408 104.3819408  71.4200000
  34.0809408 100.9719408  70.1910000  33.3579408 101.5829408  70.3280000
  34.6869408 101.1519408  70.9110000  32.4699408  92.2689408  69.4860000
  31.9209408  93.0069408  69.2190000  31.8819408  91.5139408  69.4670000
  33.0199408 106.0899408  71.5960000  32.9749408 106.1599408  72.5500000
  33.1089408 106.9939408  71.2930000  42.5739408 104.1909408  76.7410000
  42.6879408 103.7449408  75.9010000  43.3929408 104.6689408  76.8720000
  39.4949408 105.9309408  63.8740000  39.7659408 105.7989408  64.7830000
  39.9059408 106.7569408  63.6190000  38.0449408 108.2839408  77.2700000
  37.8129408 107.5769408  77.8720000  38.2419408 107.8409408  76.4450000
  38.0199408  91.0509408  74.0630000  38.1869408  91.8039408  73.4960000
  38.5849408  91.1939408  74.8240000  42.3299408 113.4389408  64.0320000
  41.5709408 112.9229408  63.7610000  43.0749408 113.0059408  63.6160000
  33.8559408 118.2669408  66.1100000  33.5329408 119.1219408  65.8250000
  34.7399408 118.4389408  66.4320000  32.1229408 112.1309408  77.8600000
  32.8419408 111.8089408  77.3180000  32.3069408 113.0629408  77.9750000
  48.9909408  98.3469408  65.9690000  49.9089408  98.3779408  66.2400000
  48.8449408  97.4349408  65.7200000  35.8029408 106.0779408  64.3120000
  36.5949408 105.6419408  63.9980000  35.6179408 105.6609408  65.1540000
  45.6349408 101.6509408  63.7230000  46.4549408 101.1739408  63.8460000
  45.4639408 102.0589408  64.5730000  43.6209408 105.0579408  71.2560000
  42.8359408 105.3699408  71.7060000  43.5009408 105.3309408  70.3470000
  36.7349408 100.4089408  76.9120000  37.6709408 100.2119408  76.8740000
  36.3309408  99.5979408  77.2210000  39.1019408 109.7299408  82.1000000
  39.8669408 109.3959408  81.6300000  39.3469408 110.6199408  82.3550000
  38.8879408 110.4159408  61.5990000  38.2829408 109.7779408  61.9770000
  38.7719408 111.2019408  62.1330000  43.4439408  90.5639408  65.1250000
  44.2609408  90.5429408  65.6220000  43.7179408  90.5099408  64.2090000
  38.1309408 107.3219408  69.6840000  38.1119408 108.2399408  69.4110000
  37.9969408 107.3509408  70.6310000  41.8609408  98.8709408  60.8180000
  41.4729408  99.7019408  60.5460000  42.8049408  99.0259408  60.7920000
  44.0549408 110.7059408  79.8650000  43.1819408 110.5199408  80.2090000
  44.1139408 110.1809408  79.0660000  38.7819408 104.8269408  70.5120000
  37.8989408 104.6719408  70.8490000  38.7299408 105.6859408  70.0920000
  55.7759408 105.5769408  75.5950000  56.5949408 105.4519408  75.1160000
  55.8309408 104.9639408  76.3280000  44.7319408  95.0299408  66.7360000
  45.2879408  94.2539408  66.6670000  45.2679408  95.6689408  67.2060000
  44.8019408 105.4929408  76.8610000  44.9129408 106.3009408  76.3600000
  45.6729408 105.3059408  77.2110000  57.4529408 102.4809408  72.6510000
  56.9679408 101.6609408  72.7380000  58.3159408 102.2169408  72.3320000
  43.6759408 102.0399408  68.3110000  42.9579408 102.4469408  68.7970000
  43.3909408 101.1369408  68.1740000  34.4319408  89.9699408  69.1520000
  34.9539408  90.3289408  69.8690000  33.7079408  90.5879408  69.0490000
  33.1979408 105.2869408  67.9950000  32.5999408 105.4139408  67.2590000
  32.7259408 104.7069408  68.5910000  43.4919408 100.2479408  75.4210000
  44.1179408 100.9619408  75.5410000  44.0109408  99.5349408  75.0460000
  58.8019408  96.7519408  75.1170000  58.5949408  96.3399408  74.2790000
  57.9779408  97.1509408  75.3980000  36.3509408 102.5299408  80.8020000
  35.7639408 102.6359408  80.0530000  36.8079408 103.3679408  80.8690000
  32.1939408  92.4329408  75.0200000  31.9859408  92.0149408  74.1840000
  32.7589408  93.1699408  74.7850000  50.3539408  91.1919408  74.3940000
  51.2449408  91.0649408  74.0680000  50.3279408  92.1089408  74.6690000
  42.9529408 108.1909408  64.7110000  42.8259408 108.4779408  65.6150000
  43.8859408 108.3269408  64.5450000  41.2079408 103.2309408  69.6310000
  41.4929408 103.1859408  70.5430000  40.4689408 103.8389408  69.6400000
  35.2889408 106.5969408  61.2440000  36.1979408 106.4009408  61.4730000
  35.0949408 106.0109408  60.5130000  35.9609408  91.2959408  70.8390000
  36.7089408  91.8909408  70.8830000  35.2019408  91.8499408  71.0230000
  43.8409408 105.9929408  79.9150000  43.3829408 105.6059408  79.1690000
  44.1529408 106.8389408  79.5910000  47.9259408 103.8949408  74.1400000
  46.9729408 103.9149408  74.2200000  48.2449408 104.1439408  75.0080000
  47.9639408  94.7779408  60.3340000  47.0519408  95.0459408  60.4500000
  48.1979408  94.3589408  61.1630000  36.0819408 101.7559408  63.1260000
  35.2619408 102.2489408  63.0890000  36.7199408 102.3779408  63.4750000
  50.7849408 101.9599408  77.6010000  51.3309408 101.2469408  77.2700000
  50.9109408 102.6709408  76.9720000  46.0959408 100.7469408  69.5820000
  45.3069408 100.3579408  69.9590000  46.3329408 100.1619408  68.8630000
  41.8799408 101.9409408  63.1400000  41.5959408 101.9629408  64.0530000
  42.2839408 101.0799408  63.0340000  40.6029408 108.1769408  72.3180000
  39.6709408 108.0139408  72.4610000  40.6839408 109.1309408  72.3230000
  46.8019408 110.5669408  75.9690000  47.5409408 109.9729408  75.8380000
  46.7199408 111.0359408  75.1380000  36.3819408  93.8779408  66.2780000
  36.8239408  94.1609408  67.0780000  36.7769408  94.4079408  65.5850000
  47.8219408 100.6709408  84.7140000  47.0509408 100.2079408  84.3860000
  48.5589408 100.2549408  84.2680000  57.1529408 103.0869408  76.5300000
  57.5009408 102.5009408  77.2020000  56.4709408 102.5749408  76.0950000
  44.8989408 116.5689408  68.8670000  44.8359408 116.8249408  69.7880000
  44.8469408 115.6129408  68.8800000  36.4319408  99.2409408  69.6680000
  35.6539408  99.7959408  69.6110000  36.1929408  98.4429408  69.1960000
  47.9739408 100.1959408  64.3400000  48.5639408 100.9399408  64.4650000
  48.2259408  99.5729408  65.0210000  44.5639408 101.3319408  72.5050000
  45.3129408 101.9219408  72.4160000  44.8419408 100.5249408  72.0710000
  40.5329408  94.8369408  71.0850000  40.4469408  95.5079408  70.4070000
  41.3799408  95.0149408  71.4930000  38.3729408 113.4639408  73.1860000
  39.1639408 113.9339408  72.9220000  37.6539408 113.9979408  72.8490000
  38.0019408 103.8009408  64.2870000  38.6839408 104.4149408  64.0160000
  37.9259408 103.9279408  65.2330000  38.5919408 110.0079408  71.6570000
  37.6919408 109.6829408  71.6220000  38.5009408 110.9549408  71.7650000
  38.5059408 119.5499408  64.7200000  39.2599408 119.8159408  64.1930000
  38.6619408 119.9459408  65.5770000  34.0379408 117.2559408  69.9530000
  34.9729408 117.0479408  69.9550000  33.9999408 118.1869408  69.7350000
  47.8569408  95.7969408  66.3200000  48.7739408  95.6119408  66.1180000
  47.3679408  95.4069408  65.5960000  39.6499408 101.8419408  67.8760000
  40.4039408 102.2779408  68.2730000  39.2779408 101.3139408  68.5820000
  47.8409408 101.3329408  81.0730000  47.5779408 100.4969408  81.4570000
  47.0239408 101.8229408  80.9800000  46.4069408  93.6289408  79.0480000
  47.1099408  94.2789408  79.0450000  46.1969408  93.5069408  79.9740000
  41.6449408  98.1269408  83.6070000  41.9199408  97.4939408  84.2710000
  41.9309408  98.9729408  83.9510000  48.3389408  98.6359408  77.0160000
  48.1949408  99.4509408  77.4970000  49.2549408  98.4159408  77.1850000
  37.8239408  99.7049408  61.9020000  38.6989408  99.3949408  62.1340000
  37.3699408  99.7939408  62.7400000  43.4879408  98.3599408  77.7820000
  42.5719408  98.4729408  78.0380000  43.7179408  99.1799408  77.3450000
  35.3919408  99.8369408  81.5440000  34.4879408 100.0839408  81.7380000
  35.8819408 100.6569408  81.5990000  45.6989408 103.6459408  81.5090000
  44.9289408 104.2119408  81.4530000  45.7449408 103.3939408  82.4310000
  35.3759408  95.8509408  64.5400000  35.9379408  96.5929408  64.3170000
  35.1269408  96.0039408  65.4520000  51.4999408 110.8909408  81.6630000
  51.5299408 111.8449408  81.5890000  51.2169408 110.5929408  80.7990000
  46.1989408 102.7839408  84.3270000  46.9519408 102.3809408  84.7590000
  45.5079408 102.1229408  84.3830000  50.3079408 102.6819408  81.5200000
  49.5659408 102.7069408  82.1230000  50.0339408 103.2229408  80.7790000
  37.8799408 116.0279408  83.7110000  38.5289408 116.2299408  83.0370000
  37.0729408 115.8609408  83.2240000  48.4169408 104.7709408  80.7260000
  48.8399408 105.1919408  81.4750000  47.5249408 104.5919408  81.0240000
  44.9759408 105.1649408  83.9550000  45.6309408 105.7189408  83.5300000
  45.4869408 104.4979408  84.4130000  50.1269408 107.4139408  77.2570000
  50.8569408 108.0169408  77.1180000  50.2649408 107.0689408  78.1390000
  47.7229408  99.0149408  74.5310000  48.2079408  99.8399408  74.5330000
  47.7629408  98.7109408  75.4380000  47.0589408  94.2909408  63.6940000
  47.3229408  93.4279408  64.0130000  46.3329408  94.1129408  63.0950000
  42.1429408 103.0499408  83.4810000  42.7959408 103.1569408  82.7890000
  41.8279408 103.9369408  83.6530000  39.2999408  94.7489408  76.6790000
  38.4779408  94.7659408  76.1890000  39.0309408  94.7099408  77.5970000
  40.2849408  99.8869408  72.5980000  40.8409408  99.1149408  72.4900000
  40.1829408  99.9779408  73.5460000  47.8369408  95.8009408  78.3520000
  48.7399408  95.6199408  78.0890000  47.7859408  96.7559408  78.3950000
  42.3099408 107.8379408  78.4750000  41.5999408 107.7869408  77.8350000
  42.9599408 108.4099408  78.0670000  51.5769408 100.0929408  73.5580000
  50.8019408 100.5149408  73.9290000  51.6999408 100.5189408  72.7100000
  35.6739408 113.6199408  60.0820000  36.0949408 113.8689408  60.9050000
  36.3839408 113.2649408  59.5480000  33.0279408 108.2679408  61.4330000
  33.1569408 109.2159408  61.4620000  33.8729408 107.9189408  61.1520000
  35.6639408  98.1749408  78.2520000  36.2629408  97.8789408  78.9380000
  35.1889408  97.3859408  77.9920000  35.9109408  96.2639408  83.1760000
  35.8639408  95.3079408  83.1610000  35.2579408  96.5469408  82.5370000
  33.5549408 102.7819408  63.2750000  32.7219408 102.4139408  63.5720000
  33.4619408 103.7249408  63.4110000  50.1159408  93.8369408  75.0270000
  50.6079408  94.5009408  74.5440000  49.2639408  93.8059408  74.5920000
  39.1499408 119.6889408  82.5040000  39.9349408 120.2339408  82.5540000
  39.1679408 119.3219408  81.6200000  39.0229408 100.0999408  83.4030000
  38.3649408 100.6929408  83.7660000  38.5369408  99.3039408  83.1870000
  32.6359408  99.1879408  72.6550000  32.1249408  99.8089408  73.1730000
  31.9839408  98.6069408  72.2650000  40.1199408  91.7629408  63.4120000
  39.5699408  91.8339408  62.6310000  40.9739408  92.0939408  63.1340000
  54.7679408  96.0699408  77.1460000  53.8289408  96.0299408  76.9640000
  55.1819408  95.7409408  76.3480000  35.1569408 101.4689408  75.1180000
  34.3929408 101.0489408  75.5120000  35.9069408 101.0229408  75.5130000
  46.3049408 107.8459408  78.6500000  46.4699408 108.5339408  78.0040000
  46.6669408 107.0539408  78.2540000  41.4229408  91.4139408  82.3640000
  41.7979408  91.2949408  83.2370000  42.1729408  91.6199408  81.8060000
  34.3739408  92.0349408  82.5920000  35.0449408  92.5869408  82.9950000
  33.7539408  92.6539408  82.2080000  37.8019408 106.5439408  67.0640000
  37.6149408 105.6139408  67.1890000  37.8329408 106.9049408  67.9500000
  42.7309408 102.2139408  78.9580000  42.2289408 101.4239408  78.7610000
  42.6519408 102.7509408  78.1690000  37.4109408  98.2469408  82.5390000
  37.0039408  97.3889408  82.6570000  36.8979408  98.6629408  81.8460000
  48.8269408  93.5309408  82.3500000  48.8589408  92.6169408  82.6340000
  49.3369408  93.5479408  81.5400000  43.0339408 104.4019408  63.2410000
  43.4299408 104.6769408  62.4150000  42.6019408 103.5729408  63.0360000
  44.6579408  91.6439408  84.3280000  45.2989408  91.5509408  85.0330000
  43.8909408  92.0299408  84.7510000  39.2199408 100.8319408  80.8010000
  38.2959408 100.9889408  80.6070000  39.2279408 100.5439408  81.7140000
  38.1889408 107.1529408  83.5900000  39.0689408 107.0679408  83.9560000
  37.9749408 108.0809408  83.6910000  37.2109408  98.0059408  65.3860000
  36.6419408  98.7579408  65.5510000  37.9689408  98.1489408  65.9520000
  60.1159408  98.1649408  71.4220000  60.1929408  97.2509408  71.1470000
  59.2939408  98.4639408  71.0340000  34.8949408 108.8529408  66.4910000
  35.2919408 109.6979408  66.7040000  35.4089408 108.5259408  65.7530000
  30.8779408 119.1329408  61.2170000  31.1779408 119.6449408  60.4660000
  31.0379408 118.2229408  60.9670000  36.9089408  94.5699408  75.4710000
  36.4269408  95.1219408  74.8560000  36.2819408  94.3849408  76.1700000
  46.1519408 106.8349408  66.9130000  45.4469408 106.5409408  66.3350000
  45.7099408 107.0769408  67.7270000  45.4429408  90.1609408  73.2290000
  46.1079408  89.5109408  73.4580000  45.5879408  90.8799408  73.8430000
  54.0269408 109.3799408  81.4100000  54.2849408 108.4959408  81.6720000
  53.1719408 109.5119408  81.8210000  44.3959408 108.1949408  70.7400000
  44.3709408 108.1429408  71.6950000  44.2869408 107.2889408  70.4480000
  34.5679408 102.7609408  83.3450000  34.5269408 103.7069408  83.4870000
  34.8839408 102.6679408  82.4460000  51.5419408  92.2789408  84.3060000
  51.1949408  92.1159408  83.4290000  51.4429408  91.4439408  84.7630000
  44.6329408 113.1429408  70.1660000  44.8209408 113.6079408  69.3500000
  44.7559408 112.2189408  69.9490000  45.3159408 102.0549408  76.3340000
  44.9349408 102.8129408  76.7780000  46.1729408 101.9419408  76.7450000
  52.2929408 107.8109408  83.8080000  52.1829408 107.0259408  84.3450000
  52.7159408 108.4419408  84.3890000  39.7159408 107.2639408  60.6440000
  40.4809408 106.8889408  60.2080000  40.0779408 107.7609408  61.3780000
  37.2109408 101.8149408  84.3940000  36.3699408 102.1359408  84.0660000
  37.5599408 102.5409408  84.9100000  30.1669408  98.8079408  80.3710000
  29.8829408  98.0049408  80.8070000  29.9809408  99.5029408  81.0020000
  41.3649408  99.9299408  78.7550000  40.7509408  99.2719408  78.4300000
  41.2129408  99.9549408  79.7000000  44.3869408 110.9349408  61.0510000
  43.5169408 111.2199408  60.7720000  44.8489408 110.7409408  60.2360000
  40.7769408  99.9669408  75.3550000  41.7099408 100.1599408  75.2610000
  40.7469408  99.1889408  75.9110000  49.8279408 105.7489408  73.0870000
  50.5869408 105.7009408  73.6680000  49.2939408 104.9909408  73.3260000
  58.4329408  91.3169408  77.7720000  58.3759408  90.3929408  78.0160000
  58.3789408  91.7879408  78.6040000  46.9629408 106.6139408  82.6300000
  46.8069408 107.5369408  82.8310000  47.8629408 106.5879408  82.3060000
  45.8339408  93.3109408  61.4930000  46.3929408  92.5349408  61.4550000
  45.4889408  93.4019408  60.6050000  30.8749408  93.4179408  83.9600000
  30.5559408  92.5409408  83.7490000  31.6379408  93.5389408  83.3940000
  43.8929408 109.7199408  77.2500000  43.8199408 110.5249408  76.7370000
  44.7049408 109.3139408  76.9450000  40.5189408  97.1779408  75.9270000
  40.5439408  96.3239408  76.3590000  40.1409408  96.9999408  75.0660000
  45.9109408 117.6449408  80.9300000  45.4609408 116.9469408  80.4540000
  45.2979408 117.8989408  81.6190000  47.6369408 120.0739408  82.6510000
  47.4279408 119.3739408  82.0330000  47.3079408 119.7569408  83.4920000
  37.9469408  97.0969408  79.7360000  37.9239408  96.1409408  79.7090000
  38.7869408  97.3059408  80.1460000  46.8989408 119.9439408  65.6780000
  46.7499408 119.2089408  66.2740000  46.6159408 119.6199408  64.8230000
  39.8299408 117.2289408  65.4010000  38.9329408 117.4469408  65.1470000
  40.3679408 117.5429408  64.6740000  31.1219408  96.0539408  69.6410000
  30.6489408  96.3209408  68.8530000  31.9209408  96.5809408  69.6320000
  41.1519408 112.9069408  80.7830000  41.1849408 111.9589408  80.9060000
  40.5209408 113.0349408  80.0740000  41.0869408 115.7069408  67.3250000
  40.8939408 116.1889408  68.1280000  40.7599408 116.2699408  66.6230000
  32.6749408 108.7829408  70.9760000  33.1839408 109.3299408  71.5740000
  33.0549408 108.9529408  70.1140000  43.9669408 105.5319408  65.7910000
  44.1179408 104.5939408  65.6770000  43.3829408 105.7699408  65.0710000
  32.1679408  94.6769408  72.0900000  31.6919408  95.0179408  71.3330000
  31.8439408  95.1909408  72.8290000  39.7219408 118.0699408  68.6160000
  39.4219408 118.0619408  67.7080000  39.1469408 118.6979408  69.0530000
  41.7279408 110.3879408  81.2710000  41.6209408 109.5149408  80.8940000
  42.3419408 110.2629408  81.9960000  58.0529408 115.8899408  72.2050000
  58.2489408 116.7309408  72.6180000  57.0989408 115.8779408  72.1250000
  43.8599408  96.7389408  62.4700000  43.0679408  97.2019408  62.1940000
  43.5509408  96.0939408  63.1060000  34.9999408 119.5199408  78.2440000
  35.1339408 119.6689408  79.1800000  34.6149408 120.3359408  77.9240000
  40.5059408 109.8669408  66.1100000  39.8559408 109.5139408  65.5030000
  39.9949408 110.3779408  66.7380000  43.0909408  95.1259408  64.6640000
  43.6829408  95.1169408  65.4160000  42.3979408  94.5079408  64.8970000
  33.3269408 114.6049408  79.3680000  34.2059408 114.2289408  79.3230000
  33.4169408 115.4729408  78.9750000  30.0379408 111.4779408  64.6990000
  30.9309408 111.1549408  64.5830000  29.4899408 110.8369408  64.2450000
  45.7609408 115.8819408  64.7460000  45.6409408 115.0999408  64.2060000
  44.9199408 115.9989408  65.1890000  44.2179408 110.3289408  73.1910000
  44.4609408 111.2159408  72.9250000  45.0449408 109.9189408  73.4450000
  47.6079408 111.4719408  81.4500000  47.1129408 112.1989408  81.8280000
  47.2049408 110.6879408  81.8230000  42.8429408 114.9729408  81.9030000
  42.4879408 114.2539408  81.3800000  43.3269408 115.5089408  81.2750000
  34.6779408 112.4899408  76.5850000  35.2769408 113.2359408  76.6160000
  35.2109408 111.7439408  76.8610000  35.7979408 111.3969408  66.7650000
  36.4539408 111.7799408  67.3470000  34.9819408 111.4349408  67.2640000
  47.4849408 117.6719408  67.7400000  46.6389408 117.2889408  67.9700000
  47.8719408 117.0489408  67.1250000  32.3099408 108.7869408  65.5240000
  31.6629408 108.6259408  66.2120000  33.1549408 108.6519408  65.9530000
  44.3059408 118.7819408  67.3720000  44.7559408 118.1469408  67.9280000
  43.9669408 118.2639408  66.6420000  54.3189408 114.7159408  74.1060000
  54.8969408 113.9829408  73.8980000  54.5489408 115.3919408  73.4680000
  36.4959408 108.9039408  62.3800000  35.9039408 109.5189408  61.9470000
  35.9969408 108.0889408  62.4350000  46.4369408 109.0669408  81.2430000
  46.5039408 108.3559408  80.6060000  45.6939408 109.5899408  80.9420000
  37.2649408 113.0889408  63.3920000  37.5729408 113.8519408  62.9040000
  37.6459408 113.1919408  64.2640000  40.3759408 113.4779408  77.1180000
  39.6279408 113.2069408  77.6500000  40.5139408 112.7509408  76.5100000
  45.4449408 115.1009408  74.0140000  46.2459408 115.2109408  73.5020000
  45.0809408 114.2679408  73.7140000  39.1669408  95.4379408  65.7480000
  38.8509408  95.6709408  64.8750000  39.4189408  94.5179408  65.6750000
  34.2729408 110.1469408  72.5690000  33.8439408 110.9559408  72.8460000
  35.0339408 110.0699408  73.1450000  33.2469408 105.4839408  63.2100000
  33.6359408 106.1419408  62.6340000  33.7999408 105.4919408  63.9910000
  34.1789408 107.7809408  68.9290000  34.2309408 108.1619408  68.0530000
  33.5919408 107.0319408  68.8310000  41.1639408 119.3629408  74.0990000
  41.9599408 119.0219408  74.5070000  40.8289408 120.0059408  74.7250000
  41.2709408 119.4239408  60.7540000  41.1439408 119.1009408  59.8620000
  40.7259408 120.2099408  60.8040000  40.1639408 104.3359408  77.9330000
  39.7059408 103.4989408  77.8530000  40.9369408 104.2409408  77.3770000
  36.7049408 114.8669408  67.0240000  37.3139408 114.3839408  66.4660000
  36.0519408 115.2189408  66.4190000  30.7809408 107.7779408  63.0700000
  31.3749408 107.8329408  63.8190000  31.3059408 108.0689408  62.3250000
  36.9129408 116.0559408  73.0170000  36.7609408 116.9919408  73.1450000
  37.8609408 115.9539408  73.1010000  39.9689408 115.5049408  71.5150000
  40.0609408 116.2039408  72.1630000  39.5309408 115.9229408  70.7730000
  42.8559408  92.0519408  69.6080000  43.6339408  91.5559408  69.8640000
  42.6389408  92.5739408  70.3800000  40.9059408 112.2719408  61.9450000
  40.8709408 111.3879408  61.5790000  40.4339408 112.8129408  61.3120000
  30.6149408 104.7429408  62.4330000  29.9859408 105.4539408  62.5520000
  31.4659408 105.1429408  62.6100000  45.8529408 113.8829408  67.9390000
  45.9139408 113.7729408  66.9900000  46.7569408 114.0099408  68.2250000
  37.6779408 105.6369408  78.2270000  37.3809408 105.6059408  79.1360000
  38.4549408 105.0779408  78.2080000  34.3649408 112.5619408  70.9050000
  33.8259408 113.0119408  71.5560000  35.0559408 113.1889408  70.6910000
  41.6299408 113.2589408  71.2250000  41.9139408 113.2529408  70.3110000
  40.9499408 113.9319408  71.2610000  33.3079408 112.3489408  74.1740000
  33.6449408 113.1049408  73.6930000  33.8179408 112.3319408  74.9840000
  50.0859408  93.0319408  61.4180000  50.4329408  92.3479408  60.8450000
  49.2249408  92.7079408  61.6830000  58.1769408  92.4219408  80.1510000
  57.3749408  92.2089408  80.6290000  58.4289408  93.2859408  80.4760000
  49.2209408 118.9019408  69.3070000  48.6819408 119.2899408  69.9960000
  48.5979408 118.6619408  68.6210000  30.7819408 106.6869408  75.9170000
  30.1779408 106.2529408  76.5200000  30.3069408 107.4619408  75.6180000
  36.7389408 114.1779408  69.9850000  36.8389408 115.0859408  70.2700000
  36.8689408 114.2079408  69.0370000  40.4329408  91.4439408  75.7220000
  40.5989408  91.4719408  76.6650000  40.7079408  92.3039408  75.4050000
  33.3309408 109.3729408  78.2010000  32.4419408 109.5659408  78.5000000
  33.8949408 109.6769408  78.9110000  56.3379408  98.5209408  74.7070000
  55.9319408  99.3879408  74.7270000  55.5999408  97.9109408  74.7000000
  33.1059408 111.9459408  68.1800000  33.4189408 112.7029408  68.6760000
  32.1519408 112.0229408  68.2010000  45.4369408 113.2539408  80.0090000
  46.0059408 113.1119408  79.2530000  45.0009408 112.4129408  80.1430000
  37.0619408 111.4499408  69.2770000  37.2629408 112.2119408  69.8210000
  36.5489408 110.8769408  69.8470000  42.0659408 118.8869408  69.7040000
  41.2279408 118.5389408  69.3980000  42.5209408 119.1529408  68.9050000
  41.2699408 116.0949408  76.5260000  41.8939408 116.0249408  75.8040000
  41.2699408 115.2259408  76.9290000  40.8659408 108.4719408  62.7640000
  40.6719408 109.4039408  62.8690000  41.5619408 108.2989408  63.3990000
  43.6439408  90.4429408  61.8470000  42.8629408  90.2199408  61.3410000
  43.6489408  91.3999408  61.8730000  33.1739408  90.5829408  64.5740000
  34.1289408  90.6499408  64.5680000  32.8779408  91.4079408  64.9580000
  39.4209408 111.4549408  67.9740000  38.8169408 111.4819408  68.7160000
  40.2109408 111.8929408  68.2920000  58.8549408 113.9129408  70.4620000
  58.1329408 113.2899408  70.3720000  58.5459408 114.5469408  71.1090000
  39.8059408 105.8759408  81.7940000  38.8959408 106.1509408  81.9020000
  39.7489408 104.9669408  81.5000000  37.9939408 111.3219408  74.6600000
  38.8919408 111.3319408  74.9910000  37.9779408 112.0019408  73.9870000
  55.4639408 115.1709408  68.5830000  54.5769408 115.4189408  68.3240000
  55.9009408 114.9499408  67.7600000  54.4759408 110.8279408  79.0240000
  55.3199408 111.0919408  78.6570000  54.7019408 110.2359408  79.7420000
  42.9509408  91.3049408  72.5350000  43.5739408  90.6049408  72.7320000
  42.1069408  90.9639408  72.8300000  59.8429408 116.8959408  68.9490000
  59.2369408 116.1979408  68.6960000  60.4319408 116.4839408  69.5810000
  43.2739408 116.0209408  65.5640000  43.0779408 115.8549408  66.4860000
  42.5129408 115.6839408  65.0920000  43.9679408 113.1959408  72.7510000
  43.0609408 113.1179408  72.4530000  44.4749408 113.3119408  71.9480000
  37.9659408 113.2009408  84.6000000  38.6309408 112.7009408  84.1270000
  37.9549408 114.0549408  84.1660000  58.8189408 118.9629408  79.5480000
  59.3499408 118.7979408  80.3270000  57.9169408 118.8389408  79.8420000
  37.1999408  92.1849408  79.7970000  37.7519408  91.4189408  79.6400000
  36.4489408  91.8439408  80.2840000  46.6659408 102.2829408  61.1970000
  46.1439408 103.0379408  60.9240000  46.2319408 101.9649408  61.9890000
  41.4439408 105.8639408  83.9440000  42.0879408 106.3889408  83.4680000
  40.7859408 105.6379408  83.2870000  44.5009408 102.8519408  65.8720000
  44.3729408 102.6739408  66.8040000  43.6179408 102.8409408  65.5020000
  40.8959408 109.7499408  69.9370000  40.1039408 109.8069408  70.4710000
  41.6099408 109.9329408  70.5480000  49.0259408 104.6979408  65.6060000
  49.1789408 105.5409408  66.0320000  48.8219408 104.0999408  66.3250000
  36.7689408 118.4729408  74.2330000  37.3599408 119.2059408  74.4070000
  35.9639408 118.6979408  74.6990000  42.1129408 108.3489408  67.7370000
  41.7449408 108.5769408  68.5910000  41.5649408 108.8179408  67.1070000
  54.6629408 109.5749408  72.4850000  54.9049408 108.8659408  73.0800000
  54.1909408 109.1409408  71.7740000  31.4539408 119.7109408  75.8930000
  31.4329408 120.6619408  76.0040000  32.2849408 119.5399408  75.4500000
  36.8329408 110.5419408  77.8900000  37.4509408 109.8449408  77.6710000
  36.2749408 110.1639408  78.5700000  48.8679408 117.6099408  63.3490000
  49.7269408 117.3279408  63.6620000  48.2529408 117.2769408  64.0020000
  38.3579408  94.1779408  61.8600000  38.4489408  94.8209408  62.5630000
  37.5369408  93.7239408  62.0540000  41.2019408 118.7629408  63.4690000
  41.2119408 119.5939408  63.9450000  41.6049408 118.9659408  62.6240000
  36.1329408 113.5059408  80.1000000  36.3269408 113.2889408  79.1880000
  36.9599408 113.8419408  80.4480000  40.2109408 118.4339408  71.9620000
  41.0079408 118.2959408  71.4500000  40.5229408 118.6039408  72.8510000
  31.6809408 118.4499408  67.5820000  32.3499408 117.9409408  67.1260000
  30.8959408 117.9039408  67.5440000  55.9239408 112.7609408  73.2040000
  55.7279408 112.7439408  72.2670000  56.0819408 111.8459408  73.4340000
  49.3099408 116.6769408  74.0320000  49.6109408 116.8749408  74.9190000
  49.3619408 115.7229408  73.9680000  33.3539408 114.7089408  69.0660000
  33.7559408 115.5449408  69.3010000  32.5179408 114.9489408  68.6650000
  59.6089408 117.8679408  75.3230000  60.1049408 117.1339408  74.9590000
  60.2649408 118.5469408  75.4810000  31.5119408 109.0599408  73.6060000
  30.8219408 109.4449408  73.0660000  32.0049408 108.5029408  73.0030000
  33.9449408 116.8669408  78.1460000  33.7629408 116.8199408  77.2080000
  34.4529408 117.6719408  78.2510000  43.2799408 112.0519408  75.6120000
  42.3279408 111.9589408  75.6370000  43.5199408 111.8259408  74.7140000
  42.9559408 111.3659408  66.3640000  43.4859408 111.8059408  65.6990000
  42.4029408 110.7609408  65.8690000  33.4409408  96.1809408  61.9050000
  34.0029408  96.8479408  61.5100000  33.9759408  95.7989408  62.6010000
  47.0119408 113.5979408  60.0990000  47.4669408 114.3679408  60.4400000
  46.1409408 113.9179408  59.8630000  48.2589408 102.5979408  67.4360000
  47.7069408 101.9699408  66.9700000  47.6589408 103.0499408  68.0290000
  30.1369408  93.5589408  65.8370000  29.9919408  92.6449408  65.5950000
  30.0729408  93.5669408  66.7920000  56.3759408 113.1479408  82.1470000
  55.9069408 113.8409408  81.6830000  57.2419408 113.1299408  81.7400000
  42.6159408 112.0489408  84.5270000  42.7129408 111.7699408  85.4380000
  43.1399408 111.4229408  84.0270000  34.7479408 116.4299408  62.0810000
  34.8309408 115.7089408  62.7050000  33.9279408 116.8609408  62.3190000
  39.2759408 116.4629408  74.7030000  39.7309408 116.2569408  75.5190000
  39.1089408 117.4049408  74.7520000  53.3719408 119.3539408  76.9710000
  53.3079408 118.3989408  76.9860000  52.9949408 119.6059408  76.1290000
  46.2559408 113.4489408  82.4580000  45.9049408 113.5529408  81.5740000
  45.4959408 113.5559408  83.0320000  36.9949408 105.9949408  80.7340000
  36.4209408 105.7369408  81.4560000  36.9939408 106.9519408  80.7580000
  46.4109408 117.9309408  76.0400000  46.7929408 118.4529408  76.7440000
  46.9819408 118.0879408  75.2870000  44.1419408 114.1589408  84.0840000
  43.6309408 113.3779408  84.2940000  43.5819408 114.6599408  83.4910000
  43.5379408 106.9969408  82.3460000  44.1009408 106.3869408  82.8230000
  43.4289408 106.5979408  81.4830000  43.4829408 109.4799408  83.5240000
  43.6019408 108.6709408  83.0260000  44.1959408 109.4769408  84.1620000
  35.5179408 110.8639408  60.6340000  34.6129408 110.9029408  60.3240000
  35.8689408 111.7369408  60.4600000  44.6979408 115.7839408  79.6430000
  44.8279408 115.7939408  78.6940000  44.6369408 114.8559408  79.8670000
  35.6269408 115.5319408  82.0670000  36.1349408 115.9269408  81.3580000
  35.2669408 114.7309408  81.6870000  54.5209408 107.0009408  82.3890000
  55.1209408 106.3069408  82.6620000  53.6929408 106.7869408  82.8180000
  40.6369408 111.0749408  75.7480000  41.0509408 110.3259408  76.1760000
  40.8889408 110.9959408  74.8280000  44.6019408 118.8039408  83.5100000
  45.1489408 118.3629408  84.1610000  44.6489408 119.7299408  83.7450000
  47.2359408 115.8399408  84.2300000  47.9919408 115.7569408  83.6490000
  46.6439408 115.1399408  83.9550000  46.3829408 115.0279408  76.5230000
  45.9809408 114.9789408  75.6560000  46.6939408 115.9299408  76.5930000
  29.8979408 115.6919408  82.9550000  29.7849408 114.8959408  83.4740000
  30.8379408 115.7319408  82.7780000  38.7329408 115.2859408  62.7840000
  39.4529408 115.3559408  62.1580000  38.2929408 116.1349408  62.7390000
  56.7709408  93.6649408  82.7270000  56.7729408  92.8369408  83.2070000
  57.3549408  94.2339408  83.2270000  39.9189408  93.5539408  81.8240000
  39.1149408  93.4609408  82.3350000  40.5089408  92.8899408  82.1800000
  38.4839408 102.6569408  72.7750000  38.7579408 103.2109408  72.0450000
  39.2489408 102.1129408  72.9640000  34.8689408 112.0059408  64.4930000
  35.4839408 112.3369408  63.8380000  35.3879408 111.9349408  65.2950000
  31.1839408 113.8679408  62.2820000  31.7039408 113.3719408  61.6500000
  31.6219408 113.7219408  63.1200000  31.2759408 110.9209408  82.3260000
  31.5259408 110.2529408  81.6880000  31.9619408 111.5849408  82.2600000
  37.4129408 116.2019408  80.0570000  37.4249408 116.6489408  79.2110000
  38.2419408 116.4469408  80.4690000  51.6459408 115.8579408  79.2480000
  51.8839408 115.4889408  78.3980000  51.1379408 115.1669408  79.6750000
  42.1069408 118.3369408  82.1520000  42.8629408 118.3479408  82.7390000
  41.9139408 119.2609408  81.9920000  45.8789408  92.1039408  81.6990000
  45.5149408  91.9559408  82.5720000  46.7829408  91.7959408  81.7610000
  38.8949408 111.6709408  79.8570000  38.2309408 111.5909408  79.1720000
  38.9859408 110.7849408  80.2080000  49.3409408 109.3989408  80.3370000
  49.0289408 109.1119408  79.4790000  48.5439408 109.5879408  80.8320000
  43.0649408  91.5539408  80.0000000  43.9649408  91.6039408  80.3230000
  42.9399408  90.6309408  79.7800000  40.1359408 112.0139408  83.1660000
  40.2959408 112.4989408  82.3560000  40.9959408 111.9489408  83.5810000
  48.4869408  98.0279408  61.6070000  49.1999408  98.3819408  62.1380000
  48.0509408  98.7999408  61.2450000  44.4529408 110.9099408  63.7780000
  44.3679408 110.7669408  62.8350000  45.0229408 110.2019408  64.0770000
  37.1399408 117.5469408  77.6840000  36.8289408 117.2759408  76.8200000
  36.5409408 118.2459408  77.9460000  45.7979408 118.7229408  63.2530000
  45.6619408 117.7969408  63.0530000  45.1299408 119.1799408  62.7420000
  39.0859408  91.1759408  61.1750000  38.4019408  90.5059408  61.1510000
  38.6729408  91.9539408  60.8020000  38.0329408 119.1679408  70.5370000
  38.6119408 118.8459408  71.2270000  37.5109408 119.8489408  70.9610000
  42.8329408 106.8609408  73.8650000  42.4649408 105.9809408  73.9370000
  42.1939408 107.3459408  73.3420000  35.5019408  90.1759408  80.8970000
  35.1519408  90.8029408  81.5300000  35.3639408  89.3209408  81.3060000
  44.6709408  97.7959408  65.3550000  45.3629408  97.6749408  64.7050000
  44.3999408  96.9069408  65.5840000  42.2429408  96.3459408  67.8770000
  43.0639408  95.9189408  67.6340000  41.5769408  95.9019408  67.3520000
  49.3769408  97.5459408  72.7920000  49.5639408  97.9789408  71.9590000
  48.9799408  98.2279408  73.3340000  59.9389408 102.9329408  80.1570000
  59.2409408 103.5489408  79.9330000  59.5489408 102.0699408  80.0180000
  53.4369408  98.0999408  74.6000000  53.0629408  98.4679408  73.7990000
  53.0709408  97.2169408  74.6520000  54.1399408  91.3499408  70.9420000
  53.2239408  91.4689408  71.1920000  54.1099408  90.7419408  70.2040000
  30.0609408  96.7279408  77.5830000  30.7789408  97.3319408  77.7720000
  29.7179408  97.0209408  76.7390000  49.3879408 102.0239408  61.7080000
  48.4449408 102.1189408  61.5730000  49.5609408 101.0969408  61.5410000
  48.6229408  94.8899408  72.5080000  49.1929408  94.4829408  71.8550000
  48.9969408  95.7609408  72.6440000  58.2209408 113.3229408  74.8680000
  57.5639408 113.4529408  74.1850000  59.0359408 113.1649408  74.3900000
  45.8699408  97.0169408  60.6600000  45.2029408  96.8519408  61.3270000
  46.4569408  97.6569408  61.0610000  55.9399408  95.4359408  74.7680000
  56.1589408  95.8389408  73.9280000  55.7629408  94.5199408  74.5560000
  30.4629408 112.8909408  73.2580000  30.2129408 111.9829408  73.0880000
  31.3599408 112.8359408  73.5870000  44.7979408 101.2589408  80.4950000
  44.1209408 101.7319408  80.0110000  45.3779408 101.9449408  80.8280000
  48.4659408 113.8039408  69.1880000  48.8379408 114.6159408  68.8460000
  48.9149408 113.1109408  68.7040000  46.7079408  97.0059408  63.8860000
  47.1969408  97.5149408  63.2390000  46.7849408  96.0999408  63.5860000
  35.6159408  93.9159408  77.9620000  36.1299408  93.4149408  78.5940000
  35.1099408  93.2559408  77.4870000  55.2969408  95.6169408  79.7390000
  56.1719408  95.2819408  79.5430000  54.9219408  95.8239408  78.8830000
  40.5079408  97.1349408  80.9140000  41.3479408  96.7929408  80.6060000
  40.6289408  97.2549408  81.8560000  35.4309408  98.9249408  73.3460000
  34.5449408  98.8439408  73.6980000  35.4069408  99.7229408  72.8170000
  49.1209408 101.3209408  73.8360000  48.7309408 101.3989408  72.9650000
  48.7629408 102.0599408  74.3270000  53.4509408 106.6139408  77.9200000
  53.0099408 107.2459408  77.3520000  52.8429408 106.4799408  78.6470000
  31.2429408 115.3819408  71.0890000  31.8839408 114.7989408  70.6820000
  30.4409408 114.8619408  71.1370000  30.5589408  93.4369408  62.1060000
  30.9039408  93.9419408  61.3700000  29.6199408  93.3699408  61.9320000
  55.4529408 113.0009408  66.3470000  56.1639408 112.5919408  66.8410000
  55.8259408 113.1649408  65.4810000  55.5609408 101.1319408  75.4750000
  55.1189408 100.5969408  76.1340000  54.8589408 101.6419408  75.0700000
  31.6959408 104.5629408  65.6540000  31.0739408 104.5129408  64.9270000
  31.7619408 103.6639408  65.9750000  56.7429408  93.6139408  77.8620000
  56.4659408  94.0829408  77.0750000  56.0469408  92.9769408  78.0200000
  59.2179408 113.7659408  65.8380000  59.3659408 114.3189408  65.0710000
  59.4309408 112.8809408  65.5410000  51.2669408  90.7559408  68.5830000
  51.3999408  91.0999408  69.4660000  50.5919408  90.0849408  68.6870000
  57.0209408  90.6149408  83.3560000  56.1119408  90.3729408  83.1770000
  57.4589408  89.7839408  83.5400000  57.0549408 110.3509408  73.5330000
  56.2059408 110.0659408  73.1960000  57.4329408 109.5649408  73.9270000
  53.3629408  95.0449408  71.8150000  53.7649408  95.8809408  71.5770000
  54.1039408  94.4649408  71.9930000  52.5319408 113.9129408  76.2690000
  53.3199408 113.8259408  76.8050000  52.8589408 114.0669408  75.3830000
  56.3219408  97.4929408  83.9420000  56.3019408  96.7529408  84.5480000
  57.1049408  97.9849408  84.1900000  30.1739408 101.8329408  71.6060000
  30.4409408 101.6049408  72.4960000  30.8999408 102.3529408  71.2630000
  55.7369408 109.1459408  68.1800000  54.8499408 109.1279408  68.5390000
  56.1869408 108.4239408  68.6170000  46.6539408  99.5689408  67.1000000
  46.2859408  99.1019408  66.3490000  47.5579408  99.2609408  67.1550000
  48.3429408 115.7469408  66.0430000  48.8659408 114.9999408  65.7510000
  47.5969408 115.7659408  65.4440000  34.7929408 115.8129408  65.2480000
  34.3529408 116.6369408  65.4600000  34.0799408 115.1949408  65.0880000
  53.2419408 113.1659408  70.4920000  52.9709408 113.7249408  69.7630000
  52.5509408 112.5069408  70.5570000  55.7379408 116.5139408  76.0000000
  55.5399408 115.6189408  75.7260000  54.8859408 116.8929408  76.2160000
  30.0309408  96.3349408  67.2890000  29.4529408  95.8939408  66.6650000
  30.7089408  96.7369408  66.7450000  35.4109408  91.6389408  74.1010000
  36.3529408  91.5459408  73.9540000  35.1199408  92.2449408  73.4200000
  42.0409408  93.7889408  60.3090000  41.4489408  94.5119408  60.1020000
  42.7159408  93.8299408  59.6310000  54.4599408  92.0869408  77.5660000
  54.6979408  92.1839408  76.6440000  53.9199408  91.2969408  77.5930000
  38.5499408  94.3989408  79.4280000  39.1569408  94.0959408  80.1040000
  37.8149408  93.7869408  79.4750000  51.2339408  91.7299408  71.0500000
  51.0569408  91.7479408  71.9900000  51.0979408  92.6329408  70.7630000
  52.1169408  96.2239408  76.4610000  51.5759408  96.8179408  76.9810000
  51.6809408  96.1839408  75.6100000  34.1849408 109.2609408  75.5620000
  33.2749408 109.4589408  75.3410000  34.2369408 109.3929408  76.5080000
  51.5719408 106.0879408  79.4610000  51.2589408 106.5549408  80.2350000
  52.0279408 105.3219408  79.8100000  54.5889408 102.8039408  78.0590000
  55.3309408 102.2919408  77.7360000  54.9889408 103.5189408  78.5550000
  32.6959408  94.0899408  81.8710000  32.3059408  93.5869408  81.1560000
  32.9999408  94.8979408  81.4560000  59.8669408 112.4849408  83.7190000
  60.5199408 112.0109408  83.2050000  59.1229408 112.5889408  83.1250000
  52.9719408 119.7709408  66.6800000  52.3179408 120.1079408  67.2920000
  53.6439408 119.3789408  67.2390000  42.1399408  97.4559408  72.2220000
  43.0799408  97.4309408  72.0430000  41.9669408  96.6499408  72.7080000
  57.9939408  98.9349408  78.7130000  58.8849408  98.7869408  79.0320000
  57.4419408  98.4079408  79.2910000  32.6369408  98.9269408  68.6340000
  33.0599408  99.1289408  69.4690000  31.7709408  99.3279408  68.7010000
  31.9669408  98.2519408  78.4270000  32.8179408  98.6559408  78.5950000
  31.4089408  98.5619408  79.1400000  36.0659408  93.5049408  63.3350000
  35.7129408  94.3689408  63.5490000  35.3759408  93.0859408  62.8200000
  50.1629408  93.2489408  67.1740000  50.7889408  92.6829408  67.6270000
  49.4289408  93.3299408  67.7820000  46.8479408 119.6619408  70.6200000
  46.3209408 119.0759408  71.1630000  46.2789408 119.8849408  69.8840000
  35.8869408 100.2809408  65.3640000  35.6359408 100.8369408  66.1020000
  35.8729408 100.8659408  64.6070000  52.0509408 117.8479408  81.3780000
  52.2919408 117.3129408  80.6220000  52.4079408 118.7149408  81.1820000
  56.0049408 118.4509408  80.5770000  55.3879408 117.8689408  80.1320000
  55.6789408 119.3319408  80.3920000  45.9519408 105.9449408  60.6750000
  45.0699408 105.6069408  60.8280000  46.3909408 105.2529408  60.1800000
  50.4669408 117.5979408  76.5020000  50.0149408 118.4079408  76.7400000
  49.9129408 116.9009408  76.8520000  47.1799408 114.4859408  71.5940000
  47.1339408 114.0919408  70.7230000  47.8769408 115.1389408  71.5260000
  57.1109408  97.9229408  70.7590000  56.6699408  98.6599408  71.1820000
  57.2859408  98.2279408  69.8680000  57.6649408 107.8339408  80.4340000
  57.0099408 107.9209408  81.1270000  57.7929408 108.7259408  80.1110000
  50.4459408  95.7249408  65.9510000  50.6899408  94.9389408  66.4390000
  51.2809408  96.0999408  65.6680000  34.0989408 107.2339408  80.9040000
  33.5579408 107.6299408  80.2210000  34.7849408 107.8809408  81.0720000
  53.0409408 115.6989408  67.7480000  52.2169408 116.1149408  67.4950000
  53.0589408 114.8799408  67.2530000  45.0709408  93.1099408  71.9730000
  45.9309408  92.7019408  71.8700000  44.5769408  92.4959408  72.5170000
  31.2549408  96.8109408  74.1630000  30.3669408  96.7379408  74.5100000
  31.5479408  97.6809408  74.4330000  31.2039408 108.3319408  68.1590000
  31.7869408 108.4599408  68.9080000  30.4139408 107.9419408  68.5330000
  40.8509408 108.0429408  80.5640000  41.5169408 107.8769408  79.8970000
  40.6929408 107.1879408  80.9640000  57.1119408 117.8559408  74.3000000
  56.6299408 117.3489408  74.9530000  58.0099408 117.8809408  74.6300000
  49.4179408 105.1679408  76.0930000  50.2329408 104.6729408  76.0060000
  49.6999408 106.0539408  76.3210000  35.1689408 104.5189408  76.3780000
  35.8409408 104.4369408  77.0540000  34.4199408 104.9079408  76.8290000
  51.4209408  95.9589408  73.7260000  50.7449408  96.4539408  73.2630000
  52.0389408  95.6999408  73.0420000  34.4059408 100.8699408  61.0480000
  33.6999408 101.4429408  61.3470000  35.1239408 101.0339408  61.6600000
  47.9489408 107.1749408  71.2960000  47.9059408 106.2389408  71.0990000
  48.8179408 107.2979408  71.6800000  46.7859408 108.4209408  61.6810000
  46.7219408 107.5299408  61.3370000  47.4129408 108.8559408  61.1040000
  52.8489408 103.5719408  79.9600000  53.5609408 103.2709408  79.3950000
  52.1069408 103.0129408  79.7290000  53.2589408  90.4689408  74.2250000
  53.7039408  89.7619408  73.7580000  53.9489408  91.1049408  74.4120000
  38.5139408 108.9249408  64.6940000  38.4449408 107.9949408  64.9100000
  37.8739408 109.0569408  63.9950000  30.9149408 102.1979408  63.5130000
  30.7669408 102.8599408  62.8380000  30.2449408 101.5339408  63.3490000
  46.2619408  95.6629408  71.8050000  47.1559408  95.3529408  71.9450000
  45.7269408  94.8699408  71.8260000  55.2609408  92.5219408  75.1500000
  56.1599408  92.1979408  75.2140000  55.1129408  92.6349408  74.2110000
  48.3969408  91.7669408  64.5070000  48.1719408  91.0319408  65.0770000
  49.3529408  91.8069408  64.5340000  59.4079408 110.4649408  72.4830000
  58.5159408 110.4729408  72.8300000  59.2959408 110.4509408  71.5330000
  49.9099408  98.3669408  70.0660000  49.9099408  99.2509408  69.6990000
  50.6139408  97.9149408  69.6030000  52.3429408 107.8229408  73.7280000
  52.4789408 108.5569408  74.3260000  51.4959408 107.9999408  73.3180000
  48.5539408 108.9259408  84.6820000  48.7939408 108.2999408  85.3660000
  49.3529408 109.4279408  84.5250000  30.9789408 101.7839408  66.4660000
  30.8059408 101.5689408  65.5490000  30.8379408 100.9619408  66.9360000
  48.5449408  96.2349408  68.9460000  48.6869408  96.3049408  68.0020000
  48.8589408  97.0669408  69.2990000  47.5829408  92.1169408  71.6990000
  47.5359408  91.9249408  72.6360000  47.4419408  91.2719408  71.2740000
  49.4299408 119.0179408  60.8690000  50.3869408 119.0099408  60.8630000
  49.1899408 118.4979408  61.6360000  59.4029408 111.3029408  76.8030000
  59.1189408 112.1149408  76.3830000  60.2919408 111.4879408  77.1050000
  37.9229408  90.9289408  67.0610000  38.3859408  91.4039408  67.7510000
  37.6119408  91.6119408  66.4670000  58.3659408  95.4669408  79.3010000
  58.8039408  95.9929408  78.6320000  58.0599408  94.6899408  78.8330000
  50.9419408  94.3839408  77.7550000  50.5819408  93.9059408  77.0080000
  51.5239408  95.0359408  77.3640000  51.4199408 103.2069408  84.2540000
  51.6209408 102.3409408  84.6100000  51.2789408 103.0559408  83.3200000
  59.1759408 100.3779408  82.4850000  58.2839408 100.5879408  82.2080000
  59.0939408 100.1619408  83.4140000  57.5159408 101.6489408  78.8270000
  57.5849408 100.6959408  78.7670000  57.6049408 101.8379408  79.7610000
  58.1189408 103.0759408  83.9840000  58.7619408 102.6759408  84.5710000
  57.4529408 103.4369408  84.5690000  58.0309408 115.7699408  60.2010000
  57.6519408 116.3839408  59.5710000  58.7909408 116.2309408  60.5560000
  32.9169408 100.2559408  82.9200000  32.3259408 100.8239408  82.4250000
  33.4999408 100.8599408  83.3800000  51.1939408  94.9999408  84.4080000
  50.3499408  95.2639408  84.7730000  51.2559408  94.0639408  84.5980000
  58.7599408 118.1839408  63.0480000  58.8759408 117.2849408  63.3560000
  59.4779408 118.3219408  62.4310000  32.6489408  97.0719408  83.3300000
  32.9159408  97.8839408  82.8980000  32.1039408  96.6239408  82.6820000
  52.4329408 114.4709408  60.8190000  51.6569408 114.3989408  61.3750000
  52.5059408 113.6149408  60.3970000  57.0089408  97.7539408  80.9100000
  57.1639408  97.5669408  81.8360000  56.1749408  97.3249408  80.7160000
  49.5569408 109.2589408  64.7920000  49.8279408 108.5009408  64.2750000
  49.5719408 109.9889408  64.1730000  52.1869408  97.3489408  83.2340000
  52.6329408  97.2299408  82.3960000  51.9849408  96.4599408  83.5270000
  53.0549408 116.8219408  75.9560000  52.1179408 116.8199408  76.1500000
  53.1779408 116.0819408  75.3610000  56.0829408 104.9759408  82.9120000
  56.8299408 104.5689408  82.4730000  56.1679408 104.7089408  83.8270000
  31.7139408  94.7479408  64.2270000  31.3929408  94.3309408  63.4270000
  31.0859408  94.4889408  64.9010000  56.7119408 118.8939408  61.2240000
  57.5319408 118.5429408  61.5710000  56.3319408 119.3829408  61.9540000
  54.2559408 113.5429408  78.3680000  54.2759408 112.7569408  78.9150000
  55.1489408 113.6239408  78.0320000  55.2449408 105.1359408  79.2390000
  54.6809408 105.3399408  79.9860000  55.0279408 105.8009408  78.5860000
  47.5889408  95.9449408  81.8650000  47.9269408  95.0509408  81.9150000
  48.2399408  96.4199408  81.3480000  50.0679408  96.6019408  80.6770000
  50.4109408  95.7399408  80.4420000  50.8469408  97.1369408  80.8290000
  59.4139408  93.1659408  76.0720000  59.2369408  92.3849408  76.5970000
  58.9069408  93.8589408  76.4960000  47.8799408  97.6249408  84.1220000
  47.7579408  96.6759408  84.0920000  47.0159408  97.9709408  84.3480000
  58.6979408  94.9809408  83.9730000  59.2289408  95.6649408  84.3820000
  59.2709408  94.2149408  83.9480000  39.8899408 101.8059408  77.1790000
  40.2009408 101.2239408  77.8720000  40.1229408 101.3559408  76.3660000
  32.2539408 105.9619408  84.7120000  31.4929408 105.4689408  84.4070000
  33.0069408 105.4519408  84.4130000  50.0029408  99.2039408  83.4090000
  50.8009408  98.6759408  83.4560000  49.3039408  98.6049408  83.6730000
  53.6059408 102.7209408  74.1930000  53.3069408 102.6279408  73.2890000
  53.8659408 103.6389408  74.2670000  53.0969408  97.0939408  80.7320000
  53.5719408  97.7899408  80.2780000  53.5829408  96.2959408  80.5220000
  51.2829408  94.2129408  70.2370000  52.1709408  94.4309408  70.5200000
  50.9569408  95.0169408  69.8310000  35.2779408 101.5559408  67.5480000
  34.8449408 100.9229408  68.1220000  35.5749408 102.2489408  68.1370000
  36.0519408  96.0389408  72.9900000  36.7619408  95.9259408  72.3580000
  35.9799408  96.9859408  73.1040000  56.9689408 116.1229408  82.1750000
  57.8909408 116.2139408  82.4190000  56.8059408 116.8519408  81.5770000
  30.5089408  99.7659408  73.8980000  29.8269408  99.7809408  74.5700000
  30.2249408  99.0889408  73.2830000  52.0069408 103.9469408  76.1180000
  52.6479408 103.3789408  75.6900000  52.4899408 104.3509408  76.8390000
  33.1369408 105.9089408  77.4420000  33.2879408 106.7359408  77.8990000
  32.3239408 106.0479408  76.9560000  54.1139408  93.7159408  81.1230000
  54.5879408  94.4759408  80.7840000  54.5419408  93.5189408  81.9560000
  43.7419408  96.4529408  75.6390000  44.2449408  96.8479408  74.9270000
  43.4279408  97.1979408  76.1520000  33.9139408 104.3159408  80.0960000
  33.3239408 105.0459408  80.2810000  33.8699408 104.2069408  79.1460000
  49.3529408  99.0949408  79.9650000  48.9699408  99.8979408  80.3180000
  49.1119408  98.4159408  80.5960000  47.2159408  92.2419408  74.2630000
  47.4569408  91.6839408  75.0030000  46.9959408  93.0849408  74.6600000
  36.1759408  93.6459408  83.8610000  37.0319408  93.4339408  84.2340000
  35.6269408  93.8449408  84.6190000  30.6509408 104.1239408  83.5250000
  29.7119408 103.9479408  83.5810000  30.9809408 103.4709408  82.9080000
  32.0539408 102.5049408  81.6720000  32.7779408 103.0489408  81.3630000
  31.3189408 102.7389408  81.1060000  34.6389408  98.2059408  60.3610000
  34.5499408  99.1419408  60.5400000  35.5799408  98.0399408  60.4160000
  33.5789408  95.2939408  74.7230000  34.2869408  95.7469408  74.2640000
  32.8469408  95.9109408  74.7040000  44.3679408  98.5949408  80.4910000
  44.4269408  99.5469408  80.5680000  44.3979408  98.4279408  79.5490000
  32.4339408 119.4479408  81.3220000  31.7669408 118.7629408  81.3040000
  32.1439408 120.0829408  80.6670000  49.6399408 107.0629408  81.6660000
  50.2749408 107.2579408  82.3550000  49.4069408 107.9179408  81.3040000
  57.1349408 102.3819408  81.4320000  56.3539408 101.8949408  81.6950000
  57.7049408 102.3559408  82.2000000  31.7099408  94.5589408  77.3620000
  31.2679408  94.1129408  76.6390000  31.0809408  95.2169408  77.6580000
  33.7859408  93.1389408  65.5410000  34.7399408  93.2159408  65.5740000
  33.5029408  93.8839408  65.0110000  52.3099408 100.3559408  81.7640000
  51.7209408 101.1059408  81.6740000  51.7629408  99.6659408  82.1410000
  58.6129408 110.5529408  80.3810000  59.2029408 110.8629408  81.0670000
  58.5069408 111.3039408  79.7970000  48.5159408 115.7009408  60.7170000
  48.6129408 116.6029408  61.0230000  49.1969408 115.5999408  60.0510000
  54.3199408 105.3179408  73.4330000  53.7379408 106.0469408  73.2200000
  54.8819408 105.6559408  74.1310000  49.5539408  90.0589408  77.2370000
  49.8519408  90.3489408  76.3750000  48.6799408  90.4369408  77.3290000
  54.5779408 116.1839408  79.7680000  55.3119408 115.7339408  79.3490000
  53.8019408 115.8429408  79.3220000  51.9709408 119.7309408  64.2900000
  51.4919408 120.5529408  64.3860000  52.2929408 119.5359408  65.1700000
  49.7779408 113.9979408  73.5600000  50.2779408 114.1409408  72.7560000
  50.3799408 113.5269408  74.1360000  46.2369408  92.5929408  67.0360000
  46.4979408  91.7169408  66.7530000  47.0569408  93.0199408  67.2820000
  47.8549408  93.6489408  68.8230000  48.0219408  94.5789408  68.9790000
  47.6949408  93.2839408  69.6930000  50.3289408 114.1079408  62.8240000
  49.6049408 114.5969408  62.4350000  50.2499408 114.2699408  63.7640000
  51.6989408  90.0119408  79.4060000  52.3109408  89.7979408  78.7010000
  50.9559408  90.4209408  78.9620000  57.1489408 111.4149408  68.1260000
  57.0169408 111.9989408  68.8730000  56.3659408 110.8649408  68.1090000
  52.0079408 100.1399408  76.2200000  51.9829408 100.3189408  75.2790000
  52.8879408  99.7949408  76.3750000  46.6089408 108.0909408  73.3550000
  46.7289408 107.5009408  72.6110000  47.4469408 108.5439408  73.4390000
  57.8639408 107.4319408  69.3610000  57.7469408 107.2979408  70.3010000
  58.3079408 108.2779408  69.2930000  31.0329408 115.6039408  73.9710000
  30.2089408 115.2399408  74.2930000  31.2309408 115.0919408  73.1870000
  31.9339408 119.6879408  78.6420000  32.2469408 118.7839408  78.6550000
  31.5109408 119.7829408  77.7880000  31.1559408 108.4609408  80.0400000
  30.2709408 108.7809408  79.8660000  31.0349408 107.5459408  80.2950000
  32.0799408 118.3339408  63.5080000  31.6479408 118.7749408  62.7770000
  32.4669408 119.0439408  64.0210000  47.4589408 109.6149408  66.9330000
  46.5709408 109.2699408  67.0270000  47.7209408 109.3639408  66.0470000
  56.6749408 107.5639408  73.5590000  56.2789408 107.7839408  74.4030000
  56.8119408 106.6169408  73.5990000  49.9319408 113.5469408  65.4520000
  49.4589408 112.7149408  65.4690000  50.8459408 113.3059408  65.6030000
  53.0439408 111.6259408  73.4910000  52.5689408 111.6099408  72.6600000
  53.9519408 111.4399408  73.2520000  51.5259408 117.0239408  63.9340000
  51.8329408 116.7029408  63.0860000  51.8009408 117.9409408  63.9570000
  52.5659408 113.1829408  66.2490000  52.5139408 112.3989408  66.7960000
  53.4839408 113.2299408  65.9820000  32.7359408 113.2419408  81.7040000
  32.8889408 113.6109408  80.8350000  32.5469408 113.9999408  82.2570000
  55.2289408  93.2469408  72.4100000  54.8559408  92.6399408  71.7710000
  56.0849408  93.4789408  72.0500000  33.0529408 116.7679408  75.5720000
  32.4119408 116.2939408  75.0430000  33.1159408 117.6289408  75.1590000
  55.6729408 110.8899408  83.2500000  55.9379408 111.6929408  82.8020000
  55.0279408 110.4909408  82.6670000  58.0719408 105.0429408  74.1250000
  58.3279408 104.1539408  73.8810000  58.7059408 105.6059408  73.6790000
  51.4969408 107.6769408  68.9910000  50.6869408 107.9649408  69.4120000
  51.2069408 107.1699408  68.2330000  51.3089408 111.2979408  70.9070000
  50.3719408 111.3809408  71.0840000  51.3559408 110.9219408  70.0280000
  52.7679408 109.3119408  77.3790000  52.3009408 110.0629408  77.0110000
  53.4259408 109.6989408  77.9570000  49.7129408 111.5399408  67.5910000
  49.1179408 110.8719408  67.2500000  50.5109408 111.0599408  67.8100000
  53.7039408 107.7479408  70.5130000  54.1529408 106.9339408  70.2860000
  52.9529408 107.7799408  69.9200000  57.4709408 115.8359408  66.5070000
  57.7579408 114.9329408  66.6370000  57.3959408 115.9299408  65.5570000
  57.1539408 115.2229408  78.8610000  57.2309408 114.5909408  78.1470000
  57.9429408 115.7599408  78.7930000  58.9979408 105.2499408  77.3840000
  58.6679408 105.0439408  78.2580000  58.5579408 104.6249408  76.8080000
  47.0249408 112.7099408  77.6690000  46.8809408 112.0149408  77.0260000
  46.7759408 113.5139408  77.2140000  48.1619408 101.4479408  78.1310000
  48.1129408 101.6889408  79.0560000  49.0279408 101.7449408  77.8520000
  41.7949408  94.1809408  75.4660000  41.0579408  94.3869408  76.0420000
  42.4969408  94.7619408  75.7580000  54.6279408 119.7129408  63.2650000
  53.6809408 119.5999408  63.3410000  54.9819408 119.3039408  64.0550000
  54.1549408 118.4689408  68.6710000  54.9869408 117.9959408  68.6860000
  53.5239408 117.8559408  69.0480000  56.7179408 113.2369408  77.1170000
  57.0469408 113.5299408  76.2670000  56.4409408 112.3329408  76.9690000
  48.1019408 119.3339408  73.8490000  48.8249408 119.9569408  73.9170000
  48.5209408 118.5029408  73.6270000  30.8829408 105.8929408  80.9960000
  31.0199408 105.6469408  81.9110000  30.0429408 105.4959408  80.7640000
  59.7119408 117.0349408  78.1520000  59.5509408 117.4989408  77.3300000
  59.2639408 117.5589408  78.8150000  37.1339408 113.6299408  77.5170000
  36.9599408 114.4419408  77.0430000  37.4829408 113.0339408  76.8540000
  34.8129408 110.6049408  80.3340000  34.8989408 111.5329408  80.5520000
  34.8869408 110.1529408  81.1740000  55.3029408 116.0099408  71.7730000
  55.0519408 115.5969408  70.9470000  54.6769408 116.7259408  71.8830000
  45.4609408 113.4619408  63.0360000  45.9439408 113.2799408  62.2300000
  45.3659408 112.6069408  63.4560000  43.5109408 117.9189408  75.3630000
  44.4469408 117.8499408  75.5500000  43.2639408 117.0499408  75.0470000
  55.1669408 115.1589408  61.8110000  54.2559408 114.8679408  61.8270000
  55.3879408 115.2049408  60.8810000  51.1539408 117.1659408  66.5480000
  51.4189408 116.9389408  65.6570000  51.5359408 118.0299408  66.7000000
  46.0469408  94.5639408  75.7710000  46.0809408  94.5099408  76.7260000
  45.4529408  95.2939408  75.5940000  32.8799408 117.4629408  72.2670000
  32.0239408 117.0379408  72.2150000  33.2679408 117.3299408  71.4030000
  30.1709408 115.8719408  63.6420000  30.6029408 115.3299408  62.9810000
  30.8439408 116.4929408  63.9200000  51.9069408 110.2649408  68.2860000
  51.7919408 109.3209408  68.3890000  52.4119408 110.3589408  67.4790000
  50.8209408 115.7819408  71.5460000  50.6039408 115.9449408  70.6280000
  50.7959408 116.6459408  71.9560000  48.4929408 110.8929408  71.3400000
  48.2899408 110.2629408  70.6490000  47.8709408 111.6069408  71.2050000
  57.5929408 118.9229408  70.4380000  57.4519408 119.3709408  71.2720000
  58.5019408 118.6269408  70.4740000  39.8979408 118.3239408  77.5680000
  40.5479408 117.6229408  77.5210000  39.0609408 117.8869408  77.4100000
  30.6229408 115.0849408  79.8260000  31.5509408 114.8679408  79.9130000
  30.5909408 115.7159408  79.1080000  54.9399408 118.5519408  72.8940000
  55.6679408 118.0659408  73.2810000  55.3499408 119.3119408  72.4820000
  56.2609408 110.5759408  76.5330000  55.9599408 109.7359408  76.1870000
  57.1519408 110.4039408  76.8380000  30.9209408 119.9589408  69.9480000
  31.4189408 119.3979408  69.3520000  30.0779408 120.0829408  69.5120000
  30.1289408  90.2789408  66.1440000  30.1339408  90.2069408  65.1890000
  30.6739408  89.5509408  66.4420000  50.1059408 116.3139408  68.9570000
  50.3829408 116.3689408  68.0430000  49.8789408 117.2129408  69.1940000
  47.8029408  91.4979408  62.0150000  47.8179408  91.3079408  62.9530000
  47.9959408  90.6579408  61.5970000  54.8339408 108.1349408  75.5300000
  55.1179408 107.2749408  75.8380000  54.2629408 108.4619408  76.2250000
  55.9399408 113.0769408  70.1740000  55.0409408 112.8989408  70.4490000
  55.8779408 113.8789408  69.6550000  30.5509408 113.0329408  68.3860000
  30.1859408 113.4379408  67.6000000  29.8569408 113.1109408  69.0410000
  49.0939408 115.2559408  77.6310000  48.8449408 115.5209408  78.5160000
  48.5189408 114.5169408  77.4310000  54.6889408 116.4959408  83.9890000
  55.4609408 116.4079408  83.4300000  54.0209408 115.9579408  83.5630000
  49.7889408 117.3129408  83.2930000  50.5389408 117.1429408  82.7230000
  49.6029408 118.2449408  83.1720000  56.0789408 118.6559408  65.3270000
  56.5179408 118.9459408  66.1270000  56.5309408 117.8469408  65.0860000
  51.9989408 117.5469408  61.0180000  52.9239408 117.6119408  60.7810000
  51.7279408 116.6889408  60.6910000  47.6129408 110.7449408  63.2240000
  47.4149408 109.8939408  62.8320000  47.7729408 111.3209408  62.4770000
  58.7029408 113.2359408  80.3090000  59.5569408 113.6369408  80.1500000
  58.0819408 113.8059408  79.8540000  49.1839408 112.3919408  79.3730000
  48.8759408 112.0519408  80.2130000  48.3959408 112.4469408  78.8330000
  52.4529408 112.8319408  84.3870000  53.2899408 113.2969408  84.4070000
  51.9209408 113.3219408  83.7600000  59.3329408 110.1069408  69.6110000
  60.1389408 110.5079408  69.2850000  58.7129408 110.1949408  68.8870000
  59.7389408  91.2499408  82.7270000  59.9719408  90.5979408  82.0660000
  58.7969408  91.1349408  82.8560000  56.4519408 108.2429408  83.9800000
  56.5979408 109.0739408  83.5290000  55.5169408 108.0689408  83.8690000
  32.8429408 115.7119408  83.1490000  33.7689408 115.4969408  83.0340000
  32.8479408 116.5679408  83.5780000  58.0669408 105.0089408  80.1910000
  58.0739408 105.9439408  79.9830000  57.1889408 104.8459408  80.5340000
  59.9059408 118.0329408  81.8660000  59.3759408 118.3819408  82.5830000
  60.0419408 117.1129408  82.0930000  50.8229408 110.4389408  84.5460000
  51.4419408 111.1659408  84.6110000  50.8099408 110.2179408  83.6140000
  33.7959408  92.6399408  61.5360000  33.1589408  93.0979408  60.9870000
  33.2689408  92.0539408  62.0780000  54.2699408 119.2149408  84.6630000
  54.2869408 118.9489408  85.5820000  54.4699408 118.4149408  84.1780000
  50.7379408  93.9019408  80.2470000  50.8629408  93.9519408  79.3000000
  51.6089408  94.0529408  80.6130000  59.0199408 118.8129408  84.3330000
  59.8619408 119.1639408  84.6250000  58.8459408 118.0819408  84.9260000
  56.1579408 116.4039408  63.9090000  55.6669408 117.2129408  64.0520000
  55.8099408 116.0549408  63.0890000  47.0399408 118.4119408  84.8180000
  47.5809408 118.5059408  85.6020000  47.1749408 117.5059408  84.5410000
  53.6199408 114.9529408  82.0760000  52.8519408 114.5989408  81.6270000
  54.1499408 115.3379408  81.3780000  51.2529408 113.5169408  80.7880000
  50.5179408 113.0819408  80.3570000  50.8559408 113.9929408  81.5170000
  33.1729408 119.6979408  83.8650000  32.8949408 119.4999408  82.9710000
  33.6089408 120.5479408  83.7990000  54.4219408  99.4159408  80.1160000
  55.2529408  99.6309408  80.5400000  53.7539408  99.7569408  80.7110000
  32.7039408 111.1609408  60.5350000  31.8629408 111.6189408  60.5440000
  32.8899408 111.0209408  59.6060000  48.5739408 116.5729408  79.9790000
  49.3969408 117.0059408  80.2050000  47.9349408 116.9379408  80.5900000
  53.9579408  91.6669408  83.3620000  53.0839408  91.9459408  83.6370000
  54.0009408  90.7409408  83.6010000  51.0189408 111.9559408  77.3460000
  50.6409408 112.0609408  78.2200000  51.4569408 112.7889408  77.1720000
  59.3579408  96.4659408  81.7420000  58.9689408  96.1709408  80.9190000
  59.0259408  95.8529408  82.3980000  35.0389408 110.2599408  83.3180000
  35.4329408 110.8059408  83.9980000  34.2329408 109.9279408  83.7140000
  32.0639408  92.4419408  79.6400000  32.0359408  93.1009408  78.9460000
  31.3919408  91.8059408  79.3950000  46.0279408 119.2599408  78.5900000
  45.0909408 119.1729408  78.4130000  46.1359408 118.9249408  79.4800000
  50.3859408 114.2079408  83.2040000  50.0829408 115.1069408  83.3300000
  49.8389408 113.6859408  83.7910000  30.8689408  96.2169408  60.9050000
  31.1979408  96.6709408  60.1290000  31.6129408  96.1979408  61.5060000
  40.0009408 116.2329408  81.9690000  40.8279408 115.7619408  82.0740000
  40.2609408 117.1449408  81.8330000  43.1139408 119.2469408  78.1040000
  43.4209408 118.6579408  77.4150000  42.3449408 119.6749408  77.7280000
  34.1209408 133.6749408  13.7610000  34.0209408 134.4239408  14.3480000
  34.6659408 133.0579408  14.2490000  49.4019408 137.0039408   3.4620000
  49.3069408 136.1259408   3.8320000  48.6369408 137.1089408   2.8970000
  51.2879408 125.2629408  29.9310000  50.5409408 124.9539408  30.4440000
  50.9199408 125.9259408  29.3470000  36.9639408 147.2739408   4.1330000
  36.2589408 146.7169408   4.4630000  36.9889408 148.0129408   4.7410000
  51.1249408 121.1489408  21.7350000  50.9649408 120.2999408  21.3230000
  51.6349408 121.6379408  21.0890000  36.7109408 138.7099408  21.4700000
  36.3839408 139.3649408  22.0880000  37.6529408 138.8729408  21.4250000
  41.8849408 131.9679408  12.0810000  41.2899408 131.2449408  12.2800000
  42.7569408 131.5759408  12.1090000  35.8789408 126.9689408   8.7010000
  35.4139408 126.1719408   8.4480000  35.9029408 127.4959408   7.9020000
  45.1049408 137.8279408  15.6050000  44.2939408 137.6459408  15.1300000
  45.7899408 137.7719408  14.9380000  30.6359408 134.0729408   8.5360000
  29.8129408 134.3929408   8.1640000  30.9089408 133.3719408   7.9450000
  48.8559408 138.6129408   9.2840000  48.4689408 138.1719408  10.0410000
  48.1489408 139.1559408   8.9360000  39.0639408 128.6819408  17.8260000
  38.4579408 128.2489408  18.4280000  39.3939408 127.9759408  17.2700000
  41.2259408 131.3479408   5.7040000  40.6419408 131.7979408   6.3140000
  41.6789408 130.6969408   6.2400000  47.4669408 135.2269408  17.9080000
  47.9479408 135.1439408  18.7320000  48.1319408 135.1079408  17.2300000
  52.0799408 129.5039408   6.3360000  51.9909408 129.7379408   5.4120000
  52.7389408 130.1109408   6.6740000  35.6149408 133.6859408   8.9500000
  35.7649408 133.7169408   9.8950000  34.7539408 134.0859408   8.8300000
  59.3079408 138.9599408  15.2020000  59.6479408 139.5329408  15.8900000
  59.8979408 139.0979408  14.4610000  32.5329408 127.1629408  28.8470000
  33.2739408 127.5749408  29.2930000  32.8629408 126.9599408  27.9720000
  42.9309408 145.5519408  14.1980000  43.8639408 145.3599408  14.1090000
  42.5239408 145.1209408  13.4470000  58.0369408 125.5629408   5.5490000
  57.0969408 125.6829408   5.4130000  58.2159408 124.6789408   5.2300000
  48.3629408 141.3589408   0.6810000  47.7089408 142.0489408   0.5670000
  48.2789408 140.8169408  -0.1030000  40.6849408 135.9839408   6.6650000
  41.1339408 136.8249408   6.7490000  39.8769408 136.0929408   7.1670000
  48.4319408 124.8569408  25.0460000  48.1149408 124.5139408  25.8810000
  48.3719408 124.1159408  24.4430000  58.7999408 129.9389408  15.7730000
  57.8609408 129.9999408  15.5990000  58.8569408 129.5959408  16.6650000
  32.3889408 140.7699408   3.8460000  33.1819408 141.3059408   3.8470000
  32.6729408 139.9199408   4.1820000  47.9779408 134.4559408  10.6650000
  47.2519408 134.3639408  10.0480000  47.7039408 133.9559408  11.4340000
  39.6549408 144.0029408  30.1860000  39.0479408 144.5939408  29.7410000
  40.5229408 144.3469408  29.9750000  43.5299408 134.6779408   0.5350000
  42.9009408 133.9769408   0.7060000  43.0779408 135.2629408  -0.0730000
  46.9329408 142.0279408  13.3670000  47.2779408 142.9039408  13.1980000
  47.6629408 141.4399408  13.1730000  34.4319408 148.7859408  26.2340000
  34.8979408 148.1089408  25.7430000  33.7839408 149.1269408  25.6170000
  41.7599408 143.1179408   8.5430000  41.6899408 143.8819408   7.9720000
  42.0759408 142.4179408   7.9710000  44.5309408 146.0489408   1.8910000
  45.1549408 146.0429408   1.1650000  44.9719408 145.5639408   2.5890000
  31.5889408 127.8679408   5.1380000  31.9129408 127.0799408   4.7030000
  32.3749408 128.2939408   5.4810000  34.3779408 121.6949408  16.6380000
  33.4469408 121.8319408  16.4640000  34.7679408 121.5709408  15.7730000
  46.9779408 134.3809408  28.3850000  47.8199408 133.9829408  28.6060000
  47.1409408 134.8459408  27.5640000  41.0189408 122.1809408  18.1460000
  40.7569408 123.1019408  18.1390000  41.6919408 122.1279408  18.8240000
  45.1549408 120.6799408   8.8720000  44.7649408 121.4279408   8.4200000
  45.0899408 119.9599408   8.2450000  45.4189408 134.0349408  13.0950000
  44.8099408 133.9809408  13.8320000  44.8679408 134.2559408  12.3440000
  36.8749408 146.9259408   9.7580000  37.0919408 147.8089408  10.0560000
  37.0169408 146.9499408   8.8120000  42.2769408 129.0759408  26.9600000
  41.8759408 129.8269408  26.5240000  42.9859408 129.4519408  27.4820000
  58.5349408 135.5709408   7.6430000  58.4489408 136.1489408   6.8850000
  58.1879408 136.0809408   8.3750000  38.3539408 126.3839408   3.5020000
  39.0179408 126.9059408   3.0520000  37.9879408 126.9769408   4.1590000
  54.3849408 129.4109408  17.3650000  54.7209408 128.5179408  17.2950000
  54.2909408 129.5589408  18.3060000  37.7939408 133.7699408   7.0920000
  37.1589408 133.5089408   7.7590000  38.3649408 133.0079408   6.9930000
  39.0859408 122.8069408  12.3010000  39.2659408 123.2629408  11.4790000
  39.7729408 123.1059408  12.8980000  45.8509408 133.9929408   9.0110000
  45.1649408 134.5659408   8.6690000  45.4019408 133.1709408   9.2080000
  37.6489408 137.3009408  12.5020000  37.1329408 137.8939408  13.0490000
  37.6139408 136.4609408  12.9600000  52.4549408 123.6049408   2.6640000
  51.6819408 123.5749408   2.1000000  52.7979408 124.4919408   2.5530000
  51.2289408 140.5009408  14.9470000  50.8759408 141.0379408  15.6570000
  51.9479408 141.0209408  14.5870000  37.2079408 128.2029408  29.8520000
  37.3599408 128.7419408  30.6280000  38.0649408 128.1409408  29.4310000
  40.4099408 145.8839408  26.7950000  40.4019408 146.2829408  25.9250000
  39.6159408 146.2129408  27.2170000  41.1919408 146.2969408   1.5580000
  41.2509408 147.2469408   1.6600000  41.6389408 145.9449408   2.3270000
  34.6869408 123.6109408  12.3470000  33.8339408 123.9499408  12.0730000
  35.2309408 124.3909408  12.4540000  43.1469408 132.3189408  27.0580000
  43.5739408 132.0469408  26.2450000  43.8619408 132.4039408  27.6880000
  41.3659408 140.8169408  12.9800000  41.3449408 141.5859408  12.4090000
  42.2869408 140.5579408  12.9990000  45.5709408 124.5019408  23.2080000
  46.1229408 125.1429408  22.7600000  45.2669408 123.9189408  22.5130000
  44.5329408 139.5259408   7.8070000  44.0209408 138.9609408   8.3850000
  43.9069408 140.1799408   7.4950000  34.9169408 134.0799408   6.0540000
  35.2429408 133.2809408   6.4690000  34.3959408 134.5079408   6.7330000
  41.9419408 124.9309408  18.4310000  42.8109408 125.3169408  18.3240000
  41.7659408 124.9919408  19.3700000  32.9999408 143.7209408   4.9930000
  32.5599408 143.1309408   5.6050000  33.7909408 143.2499408   4.7310000
  39.3909408 125.9979408  13.5600000  38.4679408 125.8209408  13.7410000
  39.5449408 125.6099408  12.6990000  36.4589408 139.0469408  14.2110000
  35.7969408 138.9559408  14.8960000  37.0899408 139.6709408  14.5690000
  42.7269408 124.7419408  13.0350000  43.5559408 124.2759408  12.9230000
  42.3699408 124.4009408  13.8560000  40.9189408 135.5149408  11.9010000
  40.0709408 135.1079408  11.7250000  40.7289408 136.4519408  11.9560000
  41.2779408 128.6519408   9.3500000  41.3409408 127.9429408   9.9910000
  40.6729408 129.2789408   9.7440000  37.3769408 148.8119408   1.6800000
  36.6809408 148.2869408   1.2850000  37.2869408 148.6599408   2.6210000
  45.6899408 138.6069408   4.5490000  45.8669408 138.6029408   3.6090000
  46.2479408 137.9129408   4.9010000  36.0069408 120.8799408   4.4630000
  36.8559408 120.4709408   4.2940000  36.1609408 121.8149408   4.3310000
  39.4119408 128.7209408   6.5640000  39.9009408 128.4549408   7.3430000
  40.0189408 129.2819408   6.0810000  40.9679408 138.3959408  15.9660000
  41.6029408 137.8829408  15.4660000  40.1389408 137.9329408  15.8490000
  39.0729408 130.0809408   9.9790000  39.3089408 130.3209408  10.8750000
  38.1399408 129.8699408  10.0250000  38.6629408 143.0849408   5.7270000
  39.1639408 142.7029408   6.4480000  39.3049408 143.2099408   5.0280000
  42.1909408 123.0269408   6.6490000  42.5829408 123.5069408   7.3790000
  42.8259408 122.3399408   6.4440000  32.7639408 130.3209408  15.9390000
  32.1979408 130.7929408  15.3280000  32.1579408 129.8679408  16.5260000
  33.7929408 125.9289408  18.5460000  34.5359408 125.3939408  18.2680000
  33.0419408 125.5539408  18.0850000  37.2649408 125.4869408  10.7700000
  36.6499408 126.0649408  10.3180000  37.6409408 124.9459408  10.0760000
  34.4899408 124.3149408   8.6110000  33.8189408 123.6769408   8.8510000
  34.7519408 124.0669408   7.7250000  48.2059408 131.1969408  11.0920000
  48.7899408 131.1579408  10.3350000  47.3289408 131.0939408  10.7250000
  42.6159408 122.7419408   2.6460000  42.2479408 123.1119408   1.8440000
  43.2749408 123.3789408   2.9240000  53.6789408 139.2509408  25.6230000
  52.9449408 138.9459408  26.1550000  54.0749408 139.9529408  26.1400000
  33.9959408 130.0319408  19.2360000  34.7059408 129.4889408  18.8920000
  34.1359408 130.8909408  18.8370000  43.6049408 129.6929408   3.1680000
  44.0819408 128.9459408   3.5280000  44.2209408 130.4239408   3.2310000
  40.6809408 131.2849408   0.4750000  40.9629408 131.9649408  -0.1370000
  40.5939408 131.7389408   1.3140000  36.1979408 148.7859408   7.3920000
  35.6229408 149.3219408   7.9370000  36.9389408 149.3569408   7.1890000
  45.6389408 126.6119408   8.9870000  45.6199408 126.6119408   9.9440000
  46.5409408 126.8459408   8.7660000  46.1629408 140.3279408   9.8410000
  45.8969408 140.1039408   8.9500000  45.7949408 139.6309408  10.3840000
  48.8369408 139.6889408  13.6890000  49.6529408 139.8079408  14.1740000
  49.0429408 139.9709408  12.7980000  37.3569408 134.9479408  14.1060000
  36.7409408 134.6609408  14.7800000  37.7119408 134.1349408  13.7450000
  52.1589408 131.9809408   8.6940000  52.2029408 132.9319408   8.6020000
  52.8179408 131.6489408   8.0840000  31.5759408 121.8369408  12.3790000
  31.6699408 121.3979408  11.5340000  31.7809408 122.7539408  12.1980000
  39.7979408 133.5629408  20.7020000  39.9119408 132.6129408  20.6900000
  40.2249408 133.8659408  19.9000000  35.8779408 131.1339408  28.3530000
  36.6849408 131.2089408  28.8610000  35.1959408 130.9759408  29.0060000
  42.6309408 133.1459408  14.3340000  42.2629408 133.3379408  13.4710000
  42.9819408 132.2589408  14.2530000  40.1429408 128.5439408   2.9460000
  40.7999408 128.6049408   2.2530000  40.5939408 128.8529408   3.7320000
  34.7069408 135.4199408  23.1280000  34.5639408 135.8999408  22.3120000
  34.9709408 136.0909408  23.7570000  32.9149408 136.4549408  14.3630000
  33.5279408 137.1049408  14.7050000  32.2449408 136.3749408  15.0420000
  39.9729408 121.6209408   9.1660000  40.8859408 121.7839408   8.9290000
  40.0159408 121.2549408  10.0490000  42.5159408 129.3919408   7.0440000
  42.9239408 128.9559408   6.2950000  42.6179408 128.7729408   7.7670000
  50.6819408 134.5549408  10.8580000  50.4699408 134.9719408  11.6930000
  49.8309408 134.3559408  10.4670000  48.2509408 130.8129408  27.5970000
  47.9399408 130.8729408  26.6940000  49.1989408 130.9269408  27.5330000
  35.0659408 132.1979408  18.1450000  35.8319408 131.7159408  17.8330000
  34.6889408 132.5859408  17.3550000  34.4699408 126.9909408  21.0950000
  34.3759408 126.7169408  20.1820000  34.4599408 127.9469408  21.0610000
  46.7989408 128.8369408  21.9130000  46.1259408 128.2629408  21.5470000
  47.3839408 128.2479408  22.3890000  47.3339408 121.3149408  17.3720000
  47.1459408 122.1649408  17.7700000  46.5919408 120.7639408  17.6200000
  34.3569408 144.6489408  13.1330000  35.1819408 145.0809408  12.9100000
  33.8739408 145.2999408  13.6410000  36.0859408 134.8579408  11.4430000
  35.4669408 135.3769408  10.9300000  35.9959408 135.1919408  12.3360000
  43.4409408 136.1729408   8.5040000  43.3789408 135.9409408   7.5780000
  42.7799408 136.8539408   8.6260000  38.5019408 124.1379408   8.6120000
  38.8629408 124.4539408   7.7840000  38.9809408 123.3279408   8.7890000
  39.2219408 149.9579408  19.5540000  39.1209408 149.3189408  18.8490000
  39.7729408 150.6449408  19.1780000  35.8979408 146.1729408  15.7840000
  34.9769408 146.4009408  15.6590000  36.2559408 146.1269408  14.8980000
  34.1719408 128.0399408   6.5580000  33.5999408 128.3309408   7.2680000
  34.3229408 128.8259408   6.0330000  50.9309408 128.1219408  17.8530000
  50.4899408 128.4399408  18.6410000  51.2959408 128.9089408  17.4480000
  33.5469408 149.1949408  14.3880000  33.4529408 148.7309408  13.5560000
  34.0779408 149.9629408  14.1760000  37.6459408 135.5889408   0.5610000
  38.1379408 134.9059408   1.0160000  38.1499408 136.3889408   0.7110000
  39.7719408 122.8839408   5.6410000  40.6209408 122.7349408   6.0590000
  39.7999408 122.3549408   4.8440000  39.0259408 136.3989408  15.6100000
  38.7289408 136.0099408  16.4320000  38.4029408 136.0809408  14.9560000
  54.9449408 130.7089408  22.4340000  54.4059408 130.1399408  22.9830000
  54.3479408 131.3989408  22.1430000  42.9919408 126.0789408  20.9050000
  43.2669408 126.9929408  20.8340000  43.4549408 125.7489408  21.6750000
  43.9919408 130.0189408  29.0960000  44.7189408 129.4589408  29.3680000
  44.3539408 130.5539408  28.3890000  45.0069408 127.1169408  28.0480000
  45.2319408 127.0419408  28.9750000  44.1499408 126.6969408  27.9740000
  49.7759408 137.0209408   6.7930000  49.6259408 137.7959408   6.2530000
  49.1299408 137.0889408   7.4960000  54.9269408 135.3199408   9.5870000
  55.3159408 134.5869408  10.0650000  55.3279408 135.2809408   8.7190000
  35.7419408 131.5499408  12.2860000  35.5099408 131.7689408  13.1890000
  36.5849408 131.9799408  12.1450000  59.0709408 122.3679408  13.5800000
  59.1899408 122.7229408  14.4610000  59.9599408 122.2269408  13.2550000
  45.3469408 127.8619408  13.5700000  45.5059408 127.1419408  12.9600000
  46.2199408 128.1279408  13.8590000  43.9419408 147.7469408  11.2050000
  43.6119408 147.6369408  12.0970000  43.2129408 148.1429408  10.7270000
  31.1999408 137.8119408  29.4490000  31.9049408 138.0979408  30.0290000
  31.6469408 137.3699408  28.7280000  32.4759408 133.4329408  11.5170000
  32.9669408 133.3179408  12.3310000  32.3929408 134.3819408  11.4200000
  34.0809408 130.9719408  10.1910000  33.3579408 131.5829408  10.3280000
  34.6869408 131.1519408  10.9110000  32.4699408 122.2689408   9.4860000
  31.9209408 123.0069408   9.2190000  31.8819408 121.5139408   9.4670000
  33.0199408 136.0899408  11.5960000  32.9749408 136.1599408  12.5500000
  33.1089408 136.9939408  11.2930000  42.5739408 134.1909408  16.7410000
  42.6879408 133.7449408  15.9010000  43.3929408 134.6689408  16.8720000
  45.7109408 132.0629408  28.0250000  46.5479408 131.6029408  28.0980000
  45.9129408 132.9669408  28.2670000  39.4949408 135.9309408   3.8740000
  39.7659408 135.7989408   4.7830000  39.9059408 136.7569408   3.6190000
  38.0449408 138.2839408  17.2700000  37.8129408 137.5769408  17.8720000
  38.2419408 137.8409408  16.4450000  38.0199408 121.0509408  14.0630000
  38.1869408 121.8039408  13.4960000  38.5849408 121.1939408  14.8240000
  42.3299408 143.4389408   4.0320000  41.5709408 142.9229408   3.7610000
  43.0749408 143.0059408   3.6160000  33.8559408 148.2669408   6.1100000
  33.5329408 149.1219408   5.8250000  34.7399408 148.4389408   6.4320000
  32.1229408 142.1309408  17.8600000  32.8419408 141.8089408  17.3180000
  32.3069408 143.0629408  17.9750000  48.9909408 128.3469408   5.9690000
  49.9089408 128.3779408   6.2400000  48.8449408 127.4349408   5.7200000
  35.8029408 136.0779408   4.3120000  36.5949408 135.6419408   3.9980000
  35.6179408 135.6609408   5.1540000  45.6349408 131.6509408   3.7230000
  46.4549408 131.1739408   3.8460000  45.4639408 132.0589408   4.5730000
  43.6209408 135.0579408  11.2560000  42.8359408 135.3699408  11.7060000
  43.5009408 135.3309408  10.3470000  36.7349408 130.4089408  16.9120000
  37.6709408 130.2119408  16.8740000  36.3309408 129.5979408  17.2210000
  39.1019408 139.7299408  22.1000000  39.8669408 139.3959408  21.6300000
  39.3469408 140.6199408  22.3550000  38.8879408 140.4159408   1.5990000
  38.2829408 139.7779408   1.9770000  38.7719408 141.2019408   2.1330000
  43.4439408 120.5639408   5.1250000  44.2609408 120.5429408   5.6220000
  43.7179408 120.5099408   4.2090000  38.1309408 137.3219408   9.6840000
  38.1119408 138.2399408   9.4110000  37.9969408 137.3509408  10.6310000
  41.8609408 128.8709408   0.8180000  41.4729408 129.7019408   0.5460000
  42.8049408 129.0259408   0.7920000  44.0549408 140.7059408  19.8650000
  43.1819408 140.5199408  20.2090000  44.1139408 140.1809408  19.0660000
  38.7819408 134.8269408  10.5120000  37.8989408 134.6719408  10.8490000
  38.7299408 135.6859408  10.0920000  55.7759408 135.5769408  15.5950000
  56.5949408 135.4519408  15.1160000  55.8309408 134.9639408  16.3280000
  44.7319408 125.0299408   6.7360000  45.2879408 124.2539408   6.6670000
  45.2679408 125.6689408   7.2060000  44.7409408 138.3739408  28.8420000
  45.0239408 139.2489408  28.5730000  45.2609408 138.1829408  29.6220000
  44.8019408 135.4929408  16.8610000  44.9129408 136.3009408  16.3600000
  45.6729408 135.3059408  17.2110000  37.7279408 133.2519408  26.7680000
  37.4999408 132.7349408  27.5410000  38.4259408 133.8349408  27.0650000
  48.8059408 138.6449408  29.5420000  49.1739408 137.7629408  29.4910000
  49.4979408 139.2139408  29.2050000  57.4529408 132.4809408  12.6510000
  56.9679408 131.6609408  12.7380000  58.3159408 132.2169408  12.3320000
  49.8039408 130.9529408   8.8190000  50.7069408 131.2619408   8.7410000
  49.2889408 131.5889408   8.3220000  43.6759408 132.0399408   8.3110000
  42.9579408 132.4469408   8.7970000  43.3909408 131.1369408   8.1740000
  34.4319408 119.9699408   9.1520000  34.9539408 120.3289408   9.8690000
  33.7079408 120.5879408   9.0490000  33.1979408 135.2869408   7.9950000
  32.5999408 135.4139408   7.2590000  32.7259408 134.7069408   8.5910000
  43.4919408 130.2479408  15.4210000  44.1179408 130.9619408  15.5410000
  44.0109408 129.5349408  15.0460000  58.8019408 126.7519408  15.1170000
  58.5949408 126.3399408  14.2790000  57.9779408 127.1509408  15.3980000
  36.3509408 132.5299408  20.8020000  35.7639408 132.6359408  20.0530000
  36.8079408 133.3679408  20.8690000  32.1939408 122.4329408  15.0200000
  31.9859408 122.0149408  14.1840000  32.7589408 123.1699408  14.7850000
  50.3539408 121.1919408  14.3940000  51.2449408 121.0649408  14.0680000
  50.3279408 122.1089408  14.6690000  42.9529408 138.1909408   4.7110000
  42.8259408 138.4779408   5.6150000  43.8859408 138.3269408   4.5450000
  41.2079408 133.2309408   9.6310000  41.4929408 133.1859408  10.5430000
  40.4689408 133.8389408   9.6400000  35.2889408 136.5969408   1.2440000
  36.1979408 136.4009408   1.4730000  35.0949408 136.0109408   0.5130000
  35.9609408 121.2959408  10.8390000  36.7089408 121.8909408  10.8830000
  35.2019408 121.8499408  11.0230000  44.0369408 129.3019408  10.0320000
  43.0859408 129.2279408   9.9500000  44.3769408 128.5189408   9.5980000
  43.8409408 135.9929408  19.9150000  43.3829408 135.6059408  19.1690000
  44.1529408 136.8389408  19.5910000  47.9259408 133.8949408  14.1400000
  46.9729408 133.9149408  14.2200000  48.2449408 134.1439408  15.0080000
  47.9639408 124.7779408   0.3340000  47.0519408 125.0459408   0.4500000
  48.1979408 124.3589408   1.1630000  36.0819408 131.7559408   3.1260000
  35.2619408 132.2489408   3.0890000  36.7199408 132.3779408   3.4750000
  50.7849408 131.9599408  17.6010000  51.3309408 131.2469408  17.2700000
  50.9109408 132.6709408  16.9720000  46.0959408 130.7469408   9.5820000
  45.3069408 130.3579408   9.9590000  46.3329408 130.1619408   8.8630000
  41.8799408 131.9409408   3.1400000  41.5959408 131.9629408   4.0530000
  42.2839408 131.0799408   3.0340000  40.6029408 138.1769408  12.3180000
  39.6709408 138.0139408  12.4610000  40.6839408 139.1309408  12.3230000
  46.8019408 140.5669408  15.9690000  47.5409408 139.9729408  15.8380000
  46.7199408 141.0359408  15.1380000  36.3819408 123.8779408   6.2780000
  36.8239408 124.1609408   7.0780000  36.7769408 124.4079408   5.5850000
  47.8219408 130.6709408  24.7140000  47.0509408 130.2079408  24.3860000
  48.5589408 130.2549408  24.2680000  50.9929408 136.8169408   1.4860000
  51.3499408 137.6909408   1.3270000  50.4049408 136.9299408   2.2320000
  57.1529408 133.0869408  16.5300000  57.5009408 132.5009408  17.2020000
  56.4709408 132.5749408  16.0950000  58.4819408 130.9349408   9.6410000
  58.8959408 131.1749408  10.4700000  58.9019408 131.4979408   8.9910000
  44.8989408 146.5689408   8.8670000  44.8359408 146.8249408   9.7880000
  44.8469408 145.6129408   8.8800000  36.4319408 129.2409408   9.6680000
  35.6539408 129.7959408   9.6110000  36.1929408 128.4429408   9.1960000
  47.9739408 130.1959408   4.3400000  48.5639408 130.9399408   4.4650000
  48.2259408 129.5729408   5.0210000  44.5639408 131.3319408  12.5050000
  45.3129408 131.9219408  12.4160000  44.8419408 130.5249408  12.0710000
  35.8949408 139.3489408  10.4970000  35.2319408 139.5939408  11.1420000
  35.4229408 138.8129408   9.8600000  40.5329408 124.8369408  11.0850000
  40.4469408 125.5079408  10.4070000  41.3799408 125.0149408  11.4930000
  38.3729408 143.4639408  13.1860000  39.1639408 143.9339408  12.9220000
  37.6539408 143.9979408  12.8490000  38.0019408 133.8009408   4.2870000
  38.6839408 134.4149408   4.0160000  37.9259408 133.9279408   5.2330000
  38.5919408 140.0079408  11.6570000  37.6919408 139.6829408  11.6220000
  38.5009408 140.9549408  11.7650000  38.5059408 149.5499408   4.7200000
  39.2599408 149.8159408   4.1930000  38.6619408 149.9459408   5.5770000
  34.0379408 147.2559408   9.9530000  34.9729408 147.0479408   9.9550000
  33.9999408 148.1869408   9.7350000  47.8569408 125.7969408   6.3200000
  48.7739408 125.6119408   6.1180000  47.3679408 125.4069408   5.5960000
  54.8209408 127.4299408   8.6100000  54.9309408 126.7309408   7.9650000
  55.4989408 128.0679408   8.3900000  39.6499408 131.8419408   7.8760000
  40.4039408 132.2779408   8.2730000  39.2779408 131.3139408   8.5820000
  47.8409408 131.3329408  21.0730000  47.5779408 130.4969408  21.4570000
  47.0239408 131.8229408  20.9800000  46.4069408 123.6289408  19.0480000
  47.1099408 124.2789408  19.0450000  46.1969408 123.5069408  19.9740000
  41.6449408 128.1269408  23.6070000  41.9199408 127.4939408  24.2710000
  41.9309408 128.9729408  23.9510000  48.3389408 128.6359408  17.0160000
  48.1949408 129.4509408  17.4970000  49.2549408 128.4159408  17.1850000
  37.8239408 129.7049408   1.9020000  38.6989408 129.3949408   2.1340000
  37.3699408 129.7939408   2.7400000  37.4669408 129.5539408  26.4890000
  37.0789408 130.1509408  27.1290000  37.8689408 130.1279408  25.8380000
  43.4879408 128.3599408  17.7820000  42.5719408 128.4729408  18.0380000
  43.7179408 129.1799408  17.3450000  57.1329408 133.4899408   6.5760000
  56.2129408 133.7239408   6.4540000  57.5309408 134.2739408   6.9540000
  35.3919408 129.8369408  21.5440000  34.4879408 130.0839408  21.7380000
  35.8819408 130.6569408  21.5990000  45.6989408 133.6459408  21.5090000
  44.9289408 134.2119408  21.4530000  45.7449408 133.3939408  22.4310000
  35.3759408 125.8509408   4.5400000  35.9379408 126.5929408   4.3170000
  35.1269408 126.0039408   5.4520000  51.4999408 140.8909408  21.6630000
  51.5299408 141.8449408  21.5890000  51.2169408 140.5929408  20.7990000
  46.1989408 132.7839408  24.3270000  46.9519408 132.3809408  24.7590000
  45.5079408 132.1229408  24.3830000  50.3079408 132.6819408  21.5200000
  49.5659408 132.7069408  22.1230000  50.0339408 133.2229408  20.7790000
  53.5869408 131.2759408   3.3410000  52.6949408 131.6219408   3.3230000
  54.1119408 131.9439408   2.9000000  37.8799408 146.0279408  23.7110000
  38.5289408 146.2299408  23.0370000  37.0729408 145.8609408  23.2240000
  48.4169408 134.7709408  20.7260000  48.8399408 135.1919408  21.4750000
  47.5249408 134.5919408  21.0240000  44.9759408 135.1649408  23.9550000
  45.6309408 135.7189408  23.5300000  45.4869408 134.4979408  24.4130000
  50.1269408 137.4139408  17.2570000  50.8569408 138.0169408  17.1180000
  50.2649408 137.0689408  18.1390000  47.7229408 129.0149408  14.5310000
  48.2079408 129.8399408  14.5330000  47.7629408 128.7109408  15.4380000
  47.0589408 124.2909408   3.6940000  47.3229408 123.4279408   4.0130000
  46.3329408 124.1129408   3.0950000  42.1429408 133.0499408  23.4810000
  42.7959408 133.1569408  22.7890000  41.8279408 133.9369408  23.6530000
  39.2999408 124.7489408  16.6790000  38.4779408 124.7659408  16.1890000
  39.0309408 124.7099408  17.5970000  40.2849408 129.8869408  12.5980000
  40.8409408 129.1149408  12.4900000  40.1829408 129.9779408  13.5460000
  41.5199408 130.6549408  24.6330000  41.7749408 131.4879408  24.2350000
  40.7539408 130.3749408  24.1320000  58.8309408 127.2719408   2.2880000
  58.8699408 126.9779408   3.1980000  59.5399408 126.7969408   1.8530000
  42.8319408 126.0959408  25.8560000  42.2219408 126.7999408  26.0740000
  42.2899408 125.4319408  25.4300000  52.0739408 129.3869408  29.4840000
  52.9599408 129.0269408  29.4310000  51.4999408 128.6319408  29.3590000
  47.8369408 125.8009408  18.3520000  48.7399408 125.6199408  18.0890000
  47.7859408 126.7559408  18.3950000  45.8959408 139.4069408  24.8660000
  45.5879408 138.8379408  25.5710000  46.8499408 139.3899408  24.9430000
  42.3099408 137.8379408  18.4750000  41.5999408 137.7869408  17.8350000
  42.9599408 138.4099408  18.0670000  51.5769408 130.0929408  13.5580000
  50.8019408 130.5149408  13.9290000  51.6999408 130.5189408  12.7100000
  33.0429408 132.8729408  25.6090000  33.5349408 132.7249408  24.8020000
  32.7319408 132.0039408  25.8640000  44.6799408 149.2389408  26.7010000
  45.3729408 149.7719408  26.3100000  44.3379408 149.7769408  27.4150000
  35.6739408 143.6199408   0.0820000  36.0949408 143.8689408   0.9050000
  36.3839408 143.2649408  -0.4520000  33.0279408 138.2679408   1.4330000
  33.1569408 139.2159408   1.4620000  33.8729408 137.9189408   1.1520000
  35.6639408 128.1749408  18.2520000  36.2629408 127.8789408  18.9380000
  35.1889408 127.3859408  17.9920000  35.9109408 126.2639408  23.1760000
  35.8639408 125.3079408  23.1610000  35.2579408 126.5469408  22.5370000
  33.5549408 132.7819408   3.2750000  32.7219408 132.4139408   3.5720000
  33.4619408 133.7249408   3.4110000  42.0799408 122.2879408  25.6550000
  41.8949408 122.3419408  26.5920000  41.6749408 123.0719408  25.2840000
  33.4729408 129.6029408  27.1470000  33.7089408 128.7169408  26.8730000
  34.0979408 129.8149408  27.8400000  50.1159408 123.8369408  15.0270000
  50.6079408 124.5009408  14.5440000  49.2639408 123.8059408  14.5920000
  39.1499408 149.6889408  22.5040000  39.9349408 150.2339408  22.5540000
  39.1679408 149.3219408  21.6200000  40.2899408 136.9219408  26.2360000
  40.6129408 136.3839408  25.5120000  40.5349408 137.8159408  25.9980000
  35.6959408 126.5609408  27.9650000  36.2729408 126.7839408  27.2350000
  36.2299408 126.7069408  28.7460000  39.0229408 130.0999408  23.4030000
  38.3649408 130.6929408  23.7660000  38.5369408 129.3039408  23.1870000
  32.6359408 129.1879408  12.6550000  32.1249408 129.8089408  13.1730000
  31.9839408 128.6069408  12.2650000  40.1199408 121.7629408   3.4120000
  39.5699408 121.8339408   2.6310000  40.9739408 122.0939408   3.1340000
  45.5569408 145.5499408  26.2860000  44.8219408 144.9969408  26.0220000
  46.0899408 145.6339408  25.4950000  37.1549408 127.1399408  25.5410000
  36.6739408 127.0259408  24.7220000  37.2739408 128.0859408  25.6200000
  44.3109408 130.8199408  25.0000000  43.4729408 130.6859408  24.5580000
  44.6099408 129.9379408  25.2200000  54.7679408 126.0699408  17.1460000
  53.8289408 126.0299408  16.9640000  55.1819408 125.7409408  16.3480000
  35.1569408 131.4689408  15.1180000  34.3929408 131.0489408  15.5120000
  35.9069408 131.0229408  15.5130000  46.3049408 137.8459408  18.6500000
  46.4699408 138.5339408  18.0040000  46.6669408 137.0539408  18.2540000
  41.4229408 121.4139408  22.3640000  41.7979408 121.2949408  23.2370000
  42.1729408 121.6199408  21.8060000  34.3739408 122.0349408  22.5920000
  35.0449408 122.5869408  22.9950000  33.7539408 122.6539408  22.2080000
  37.8019408 136.5439408   7.0640000  37.6149408 135.6139408   7.1890000
  37.8329408 136.9049408   7.9500000  39.5459408 134.8449408  27.9910000
  39.9689408 135.6099408  27.6000000  39.0599408 135.1949408  28.7380000
  31.7749408 120.6259408  28.9360000  32.5749408 121.0719408  29.2140000
  31.1079408 121.3129408  28.9280000  42.7309408 132.2139408  18.9580000
  42.2289408 131.4239408  18.7610000  42.6519408 132.7509408  18.1690000
  33.0389408 147.9559408  28.5700000  33.2659408 147.7619408  27.6600000
  32.9049408 148.9029408  28.5870000  38.8229408 139.2789408  28.8730000
  39.0599408 138.7649408  29.6450000  38.2279408 139.9509408  29.2050000
  40.8119408 124.5099408  24.7060000  39.9129408 124.5729408  25.0290000
  40.7219408 124.4639408  23.7540000  38.1589408 131.4079408  29.5170000
  39.1069408 131.5379408  29.5250000  37.9899408 130.8219408  30.2550000
  37.4109408 128.2469408  22.5390000  37.0039408 127.3889408  22.6570000
  36.8979408 128.6629408  21.8460000  35.9589408 122.4859408  29.6520000
  35.4029408 122.4139408  30.4270000  35.4749408 122.0279408  28.9650000
  58.9339408 119.9049408  27.3680000  59.3039408 120.6489408  27.8430000
  59.4589408 119.8439408  26.5700000  48.8269408 123.5309408  22.3500000
  48.8589408 122.6169408  22.6340000  49.3369408 123.5479408  21.5400000
  43.0339408 134.4019408   3.2410000  43.4299408 134.6769408   2.4150000
  42.6019408 133.5729408   3.0360000  44.6579408 121.6439408  24.3280000
  45.2989408 121.5509408  25.0330000  43.8909408 122.0299408  24.7510000
  39.2199408 130.8319408  20.8010000  38.2959408 130.9889408  20.6070000
  39.2279408 130.5439408  21.7140000  38.1889408 137.1529408  23.5900000
  39.0689408 137.0679408  23.9560000  37.9749408 138.0809408  23.6910000
  37.2109408 128.0059408   5.3860000  36.6419408 128.7579408   5.5510000
  37.9689408 128.1489408   5.9520000  60.1159408 128.1649408  11.4220000
  60.1929408 127.2509408  11.1470000  59.2939408 128.4639408  11.0340000
  51.0649408 129.6399408   2.0140000  51.5329408 129.0169408   2.5690000
  51.5449408 129.6309408   1.1850000  34.8949408 138.8529408   6.4910000
  35.2919408 139.6979408   6.7040000  35.4089408 138.5259408   5.7530000
  30.8779408 149.1329408   1.2170000  31.1779408 149.6449408   0.4660000
  31.0379408 148.2229408   0.9670000  36.9089408 124.5699408  15.4710000
  36.4269408 125.1219408  14.8560000  36.2819408 124.3849408  16.1700000
  45.2509408 128.2789408  25.3330000  44.5369408 127.6459408  25.4040000
  45.7219408 128.2039408  26.1630000  46.1519408 136.8349408   6.9130000
  45.4469408 136.5409408   6.3350000  45.7099408 137.0769408   7.7270000
  31.6169408 129.6609408  25.2060000  32.3259408 129.5369408  25.8370000
  32.0529408 129.9679408  24.4120000  45.4429408 120.1609408  13.2290000
  46.1079408 119.5109408  13.4580000  45.5879408 120.8799408  13.8430000
  54.0269408 139.3799408  21.4100000  54.2849408 138.4959408  21.6720000
  53.1719408 139.5119408  21.8210000  44.3959408 138.1949408  10.7400000
  44.3709408 138.1429408  11.6950000  44.2869408 137.2889408  10.4480000
  35.1149408 124.0059408  26.8730000  34.1869408 124.1409408  26.6820000
  35.3489408 124.7299408  27.4530000  34.5679408 132.7609408  23.3450000
  34.5269408 133.7069408  23.4870000  34.8839408 132.6679408  22.4460000
  51.5419408 122.2789408  24.3060000  51.1949408 122.1159408  23.4290000
  51.4429408 121.4439408  24.7630000  44.6329408 143.1429408  10.1660000
  44.8209408 143.6079408   9.3500000  44.7559408 142.2189408   9.9490000
  45.3159408 132.0549408  16.3340000  44.9349408 132.8129408  16.7780000
  46.1729408 131.9419408  16.7450000  52.2929408 137.8109408  23.8080000
  52.1829408 137.0259408  24.3450000  52.7159408 138.4419408  24.3890000
  39.7159408 137.2639408   0.6440000  40.4809408 136.8889408   0.2080000
  40.0779408 137.7609408   1.3780000  39.6429408 147.8269408  24.9720000
  39.4569408 147.5769408  24.0670000  40.3899408 148.4219408  24.9080000
  37.2109408 131.8149408  24.3940000  36.3699408 132.1359408  24.0660000
  37.5599408 132.5409408  24.9100000  30.1669408 128.8079408  20.3710000
  29.8829408 128.0049408  20.8070000  29.9809408 129.5029408  21.0020000
  41.3649408 129.9299408  18.7550000  40.7509408 129.2719408  18.4300000
  41.2129408 129.9549408  19.7000000  44.3869408 140.9349408   1.0510000
  43.5169408 141.2199408   0.7720000  44.8489408 140.7409408   0.2360000
  40.7769408 129.9669408  15.3550000  41.7099408 130.1599408  15.2610000
  40.7469408 129.1889408  15.9110000  33.5569408 127.1909408  26.0440000
  34.3569408 126.6719408  26.1280000  33.4109408 127.2549408  25.1000000
  49.8279408 135.7489408  13.0870000  50.5869408 135.7009408  13.6680000
  49.2939408 134.9909408  13.3260000  30.9909408 134.1799408  29.6390000
  31.5389408 134.9439408  29.4570000  30.9489408 134.1369408  30.5940000
  41.3459408 133.1939408  28.8840000  40.7059408 133.7409408  28.4290000
  41.9039408 132.8469408  28.1880000  58.4329408 121.3169408  17.7720000
  58.3759408 120.3929408  18.0160000  58.3789408 121.7879408  18.6040000
  46.9629408 136.6139408  22.6300000  46.8069408 137.5369408  22.8310000
  47.8629408 136.5879408  22.3060000  56.9299408 131.9079408   1.8610000
  56.9209408 132.4829408   2.6270000  57.6339408 131.2839408   2.0360000
  45.8339408 123.3109408   1.4930000  46.3929408 122.5349408   1.4550000
  45.4889408 123.4019408   0.6050000  30.8749408 123.4179408  23.9600000
  30.5559408 122.5409408  23.7490000  31.6379408 123.5389408  23.3940000
  43.8929408 139.7199408  17.2500000  43.8199408 140.5249408  16.7370000
  44.7049408 139.3139408  16.9450000  40.5189408 127.1779408  15.9270000
  40.5439408 126.3239408  16.3590000  40.1409408 126.9999408  15.0660000
  45.9109408 147.6449408  20.9300000  45.4609408 146.9469408  20.4540000
  45.2979408 147.8989408  21.6190000  45.5579408 124.1889408  26.1150000
  44.8629408 124.8469408  26.1260000  45.7909408 124.1009408  25.1910000
  39.3779408 128.0839408  28.2570000  38.8019408 128.1769408  27.4980000
  40.1869408 128.5259408  28.0000000  37.9469408 127.0969408  19.7360000
  37.9239408 126.1409408  19.7090000  38.7869408 127.3059408  20.1460000
  46.8989408 149.9439408   5.6780000  46.7499408 149.2089408   6.2740000
  46.6159408 149.6199408   4.8230000  39.8299408 147.2289408   5.4010000
  38.9329408 147.4469408   5.1470000  40.3679408 147.5429408   4.6740000
  48.4289408 149.3959408  28.3290000  47.9429408 148.5779408  28.2260000
  48.7299408 149.3839408  29.2380000  31.1219408 126.0539408   9.6410000
  30.6489408 126.3209408   8.8530000  31.9209408 126.5809408   9.6320000
  41.1519408 142.9069408  20.7830000  41.1849408 141.9589408  20.9060000
  40.5209408 143.0349408  20.0740000  41.0869408 145.7069408   7.3250000
  40.8939408 146.1889408   8.1280000  40.7599408 146.2699408   6.6230000
  32.6749408 138.7829408  10.9760000  33.1839408 139.3299408  11.5740000
  33.0549408 138.9529408  10.1140000  43.9669408 135.5319408   5.7910000
  44.1179408 134.5939408   5.6770000  43.3829408 135.7699408   5.0710000
  32.1679408 124.6769408  12.0900000  31.6919408 125.0179408  11.3330000
  31.8439408 125.1909408  12.8290000  39.7219408 148.0699408   8.6160000
  39.4219408 148.0619408   7.7080000  39.1469408 148.6979408   9.0530000
  41.7279408 140.3879408  21.2710000  41.6209408 139.5149408  20.8940000
  42.3419408 140.2629408  21.9960000  58.0529408 145.8899408  12.2050000
  58.2489408 146.7309408  12.6180000  57.0989408 145.8779408  12.1250000
  43.8599408 126.7389408   2.4700000  43.0679408 127.2019408   2.1940000
  43.5509408 126.0939408   3.1060000  34.9999408 149.5199408  18.2440000
  35.1339408 149.6689408  19.1800000  34.6149408 150.3359408  17.9240000
  40.5059408 139.8669408   6.1100000  39.8559408 139.5139408   5.5030000
  39.9949408 140.3779408   6.7380000  43.0909408 125.1259408   4.6640000
  43.6829408 125.1169408   5.4160000  42.3979408 124.5079408   4.8970000
  33.3269408 144.6049408  19.3680000  34.2059408 144.2289408  19.3230000
  33.4169408 145.4729408  18.9750000  30.0379408 141.4779408   4.6990000
  30.9309408 141.1549408   4.5830000  29.4899408 140.8369408   4.2450000
  45.7609408 145.8819408   4.7460000  45.6409408 145.0999408   4.2060000
  44.9199408 145.9989408   5.1890000  44.2179408 140.3289408  13.1910000
  44.4609408 141.2159408  12.9250000  45.0449408 139.9189408  13.4450000
  47.6079408 141.4719408  21.4500000  47.1129408 142.1989408  21.8280000
  47.2049408 140.6879408  21.8230000  42.8429408 144.9729408  21.9030000
  42.4879408 144.2539408  21.3800000  43.3269408 145.5089408  21.2750000
  34.6779408 142.4899408  16.5850000  35.2769408 143.2359408  16.6160000
  35.2109408 141.7439408  16.8610000  35.7979408 141.3969408   6.7650000
  36.4539408 141.7799408   7.3470000  34.9819408 141.4349408   7.2640000
  60.0089408 141.9419408  29.8560000  59.3139408 142.0199408  30.5100000
  59.9439408 141.0409408  29.5420000  47.4849408 147.6719408   7.7400000
  46.6389408 147.2889408   7.9700000  47.8719408 147.0489408   7.1250000
  32.3099408 138.7869408   5.5240000  31.6629408 138.6259408   6.2120000
  33.1549408 138.6519408   5.9530000  44.3059408 148.7819408   7.3720000
  44.7559408 148.1469408   7.9280000  43.9669408 148.2639408   6.6420000
  54.3189408 144.7159408  14.1060000  54.8969408 143.9829408  13.8980000
  54.5489408 145.3919408  13.4680000  36.4959408 138.9039408   2.3800000
  35.9039408 139.5189408   1.9470000  35.9969408 138.0889408   2.4350000
  35.8519408 147.3879408  29.9390000  35.2559408 147.5509408  29.2070000
  35.3619408 146.8089408  30.5230000  46.4369408 139.0669408  21.2430000
  46.5039408 138.3559408  20.6060000  45.6939408 139.5899408  20.9420000
  37.2649408 143.0889408   3.3920000  37.5729408 143.8519408   2.9040000
  37.6459408 143.1919408   4.2640000  40.3759408 143.4779408  17.1180000
  39.6279408 143.2069408  17.6500000  40.5139408 142.7509408  16.5100000
  45.4449408 145.1009408  14.0140000  46.2459408 145.2109408  13.5020000
  45.0809408 144.2679408  13.7140000  39.1669408 125.4379408   5.7480000
  38.8509408 125.6709408   4.8750000  39.4189408 124.5179408   5.6750000
  34.2729408 140.1469408  12.5690000  33.8439408 140.9559408  12.8460000
  35.0339408 140.0699408  13.1450000  33.2469408 135.4839408   3.2100000
  33.6359408 136.1419408   2.6340000  33.7999408 135.4919408   3.9910000
  34.1789408 137.7809408   8.9290000  34.2309408 138.1619408   8.0530000
  33.5919408 137.0319408   8.8310000  41.1639408 149.3629408  14.0990000
  41.9599408 149.0219408  14.5070000  40.8289408 150.0059408  14.7250000
  41.2709408 149.4239408   0.7540000  41.1439408 149.1009408  -0.1380000
  40.7259408 150.2099408   0.8040000  40.1639408 134.3359408  17.9330000
  39.7059408 133.4989408  17.8530000  40.9369408 134.2409408  17.3770000
  36.7049408 144.8669408   7.0240000  37.3139408 144.3839408   6.4660000
  36.0519408 145.2189408   6.4190000  30.7809408 137.7779408   3.0700000
  31.3749408 137.8329408   3.8190000  31.3059408 138.0689408   2.3250000
  36.9129408 146.0559408  13.0170000  36.7609408 146.9919408  13.1450000
  37.8609408 145.9539408  13.1010000  39.9689408 145.5049408  11.5150000
  40.0609408 146.2039408  12.1630000  39.5309408 145.9229408  10.7730000
  42.8559408 122.0519408   9.6080000  43.6339408 121.5559408   9.8640000
  42.6389408 122.5739408  10.3800000  40.9059408 142.2719408   1.9450000
  40.8709408 141.3879408   1.5790000  40.4339408 142.8129408   1.3120000
  30.6149408 134.7429408   2.4330000  29.9859408 135.4539408   2.5520000
  31.4659408 135.1429408   2.6100000  45.8529408 143.8829408   7.9390000
  45.9139408 143.7729408   6.9900000  46.7569408 144.0099408   8.2250000
  37.6779408 135.6369408  18.2270000  37.3809408 135.6059408  19.1360000
  38.4549408 135.0779408  18.2080000  34.3649408 142.5619408  10.9050000
  33.8259408 143.0119408  11.5560000  35.0559408 143.1889408  10.6910000
  41.6299408 143.2589408  11.2250000  41.9139408 143.2529408  10.3110000
  40.9499408 143.9319408  11.2610000  33.3079408 142.3489408  14.1740000
  33.6449408 143.1049408  13.6930000  33.8179408 142.3319408  14.9840000
  50.0859408 123.0319408   1.4180000  50.4329408 122.3479408   0.8450000
  49.2249408 122.7079408   1.6830000  58.1769408 122.4219408  20.1510000
  57.3749408 122.2089408  20.6290000  58.4289408 123.2859408  20.4760000
  49.2209408 148.9019408   9.3070000  48.6819408 149.2899408   9.9960000
  48.5979408 148.6619408   8.6210000  30.9919408 119.9949408  25.7370000
  31.7769408 120.0659408  25.1940000  31.2419408 120.3889408  26.5730000
  30.7819408 136.6869408  15.9170000  30.1779408 136.2529408  16.5200000
  30.3069408 137.4619408  15.6180000  36.7389408 144.1779408   9.9850000
  36.8389408 145.0859408  10.2700000  36.8689408 144.2079408   9.0370000
  40.4329408 121.4439408  15.7220000  40.5989408 121.4719408  16.6650000
  40.7079408 122.3039408  15.4050000  41.3089408 139.2199408  25.3400000
  42.0399408 139.3309408  24.7320000  41.4799408 139.8519408  26.0380000
  33.3309408 139.3729408  18.2010000  32.4419408 139.5659408  18.5000000
  33.8949408 139.6769408  18.9110000  56.3379408 128.5209408  14.7070000
  55.9319408 129.3879408  14.7270000  55.5999408 127.9109408  14.7000000
  33.1059408 141.9459408   8.1800000  33.4189408 142.7029408   8.6760000
  32.1519408 142.0229408   8.2010000  45.4369408 143.2539408  20.0090000
  46.0059408 143.1119408  19.2530000  45.0009408 142.4129408  20.1430000
  37.0619408 141.4499408   9.2770000  37.2629408 142.2119408   9.8210000
  36.5489408 140.8769408   9.8470000  42.4839408 146.0199408  29.2340000
  42.1589408 145.9759408  30.1330000  41.7009408 146.1619408  28.7020000
  42.0659408 148.8869408   9.7040000  41.2279408 148.5389408   9.3980000
  42.5209408 149.1529408   8.9050000  41.2699408 146.0949408  16.5260000
  41.8939408 146.0249408  15.8040000  41.2699408 145.2259408  16.9290000
  40.8659408 138.4719408   2.7640000  40.6719408 139.4039408   2.8690000
  41.5619408 138.2989408   3.3990000  43.6439408 120.4429408   1.8470000
  42.8629408 120.2199408   1.3410000  43.6489408 121.3999408   1.8730000
  33.1739408 120.5829408   4.5740000  34.1289408 120.6499408   4.5680000
  32.8779408 121.4079408   4.9580000  39.4209408 141.4549408   7.9740000
  38.8169408 141.4819408   8.7160000  40.2109408 141.8929408   8.2920000
  58.8549408 143.9129408  10.4620000  58.1329408 143.2899408  10.3720000
  58.5459408 144.5469408  11.1090000  39.8059408 135.8759408  21.7940000
  38.8959408 136.1509408  21.9020000  39.7489408 134.9669408  21.5000000
  37.9939408 141.3219408  14.6600000  38.8919408 141.3319408  14.9910000
  37.9779408 142.0019408  13.9870000  55.4639408 145.1709408   8.5830000
  54.5769408 145.4189408   8.3240000  55.9009408 144.9499408   7.7600000
  54.4759408 140.8279408  19.0240000  55.3199408 141.0919408  18.6570000
  54.7019408 140.2359408  19.7420000  38.2409408 139.7249408  25.2630000
  38.0479408 139.1849408  26.0300000  39.1959408 139.7239408  25.2030000
  42.9509408 121.3049408  12.5350000  43.5739408 120.6049408  12.7320000
  42.1069408 120.9639408  12.8300000  59.8429408 146.8959408   8.9490000
  59.2369408 146.1979408   8.6960000  60.4319408 146.4839408   9.5810000
  43.2739408 146.0209408   5.5640000  43.0779408 145.8549408   6.4860000
  42.5129408 145.6839408   5.0920000  43.9679408 143.1959408  12.7510000
  43.0609408 143.1179408  12.4530000  44.4749408 143.3119408  11.9480000
  37.9659408 143.2009408  24.6000000  38.6309408 142.7009408  24.1270000
  37.9549408 144.0549408  24.1660000  58.8189408 148.9629408  19.5480000
  59.3499408 148.7979408  20.3270000  57.9169408 148.8389408  19.8420000
  37.1999408 122.1849408  19.7970000  37.7519408 121.4189408  19.6400000
  36.4489408 121.8439408  20.2840000  46.6659408 132.2829408   1.1970000
  46.1439408 133.0379408   0.9240000  46.2319408 131.9649408   1.9890000
  41.4439408 135.8639408  23.9440000  42.0879408 136.3889408  23.4680000
  40.7859408 135.6379408  23.2870000  44.5009408 132.8519408   5.8720000
  44.3729408 132.6739408   6.8040000  43.6179408 132.8409408   5.5020000
  40.8959408 139.7499408   9.9370000  40.1039408 139.8069408  10.4710000
  41.6099408 139.9329408  10.5480000  49.0259408 134.6979408   5.6060000
  49.1789408 135.5409408   6.0320000  48.8219408 134.0999408   6.3250000
  36.7689408 148.4729408  14.2330000  37.3599408 149.2059408  14.4070000
  35.9639408 148.6979408  14.6990000  39.7699408 142.6009408  26.6800000
  39.2829408 142.6389408  25.8560000  39.7329408 143.4939408  27.0220000
  57.3529408 120.3099408  12.8330000  57.5099408 119.6729408  13.5300000
  57.9369408 121.0399408  13.0390000  42.1129408 138.3489408   7.7370000
  41.7449408 138.5769408   8.5910000  41.5649408 138.8179408   7.1070000
  54.6629408 139.5749408  12.4850000  54.9049408 138.8659408  13.0800000
  54.1909408 139.1409408  11.7740000  31.4539408 149.7109408  15.8930000
  31.4329408 150.6619408  16.0040000  32.2849408 149.5399408  15.4500000
  36.8329408 140.5419408  17.8900000  37.4509408 139.8449408  17.6710000
  36.2749408 140.1639408  18.5700000  55.2199408 134.8659408   1.3530000
  55.3179408 134.0859408   0.8060000  54.4369408 135.3009408   1.0120000
  48.8679408 147.6099408   3.3490000  49.7269408 147.3279408   3.6620000
  48.2529408 147.2769408   4.0020000  38.3579408 124.1779408   1.8600000
  38.4489408 124.8209408   2.5630000  37.5369408 123.7239408   2.0540000
  41.2019408 148.7629408   3.4690000  41.2119408 149.5939408   3.9450000
  41.6049408 148.9659408   2.6240000  36.1329408 143.5059408  20.1000000
  36.3269408 143.2889408  19.1880000  36.9599408 143.8419408  20.4480000
  40.2109408 148.4339408  11.9620000  41.0079408 148.2959408  11.4500000
  40.5229408 148.6039408  12.8510000  47.3879408 142.3639408  27.4260000
  47.6389408 142.8729408  28.1970000  48.1209408 142.4709408  26.8190000
  31.6809408 148.4499408   7.5820000  32.3499408 147.9409408   7.1260000
  30.8959408 147.9039408   7.5440000  55.9239408 142.7609408  13.2040000
  55.7279408 142.7439408  12.2670000  56.0819408 141.8459408  13.4340000
  49.3099408 146.6769408  14.0320000  49.6109408 146.8749408  14.9190000
  49.3619408 145.7229408  13.9680000  33.3539408 144.7089408   9.0660000
  33.7559408 145.5449408   9.3010000  32.5179408 144.9489408   8.6650000
  31.4129408 146.7549408   0.3960000  32.1889408 147.0679408  -0.0690000
  31.2349408 145.8959408   0.0140000  59.6089408 147.8679408  15.3230000
  60.1049408 147.1339408  14.9590000  60.2649408 148.5469408  15.4810000
  52.3659408 134.6299408   8.6880000  51.7399408 134.6659408   9.4110000
  53.1379408 135.0919408   9.0160000  31.5119408 139.0599408  13.6060000
  30.8219408 139.4449408  13.0660000  32.0049408 138.5029408  13.0030000
  33.9449408 146.8669408  18.1460000  33.7629408 146.8199408  17.2080000
  34.4529408 147.6719408  18.2510000  43.2799408 142.0519408  15.6120000
  42.3279408 141.9589408  15.6370000  43.5199408 141.8259408  14.7140000
  42.9559408 141.3659408   6.3640000  43.4859408 141.8059408   5.6990000
  42.4029408 140.7609408   5.8690000  33.4409408 126.1809408   1.9050000
  34.0029408 126.8479408   1.5100000  33.9759408 125.7989408   2.6010000
  47.0119408 143.5979408   0.0990000  47.4669408 144.3679408   0.4400000
  46.1409408 143.9179408  -0.1370000  37.1949408 142.4749408  28.1130000
  36.6079408 142.3649408  27.3650000  38.0739408 142.3999408  27.7400000
  48.2589408 132.5979408   7.4360000  47.7069408 131.9699408   6.9700000
  47.6589408 133.0499408   8.0290000  30.1369408 123.5589408   5.8370000
  29.9919408 122.6449408   5.5950000  30.0729408 123.5669408   6.7920000
  45.3399408 140.8529408  28.1340000  44.7079408 141.5289408  27.8920000
  46.1799408 141.1839408  27.8140000  49.9039408 120.2909408  26.3150000
  49.3069408 120.0529408  27.0240000  50.2959408 121.1169408  26.5980000
  56.3759408 143.1479408  22.1470000  55.9069408 143.8409408  21.6830000
  57.2419408 143.1299408  21.7400000  38.6959408 124.9359408  26.2190000
  38.5659408 124.8349408  27.1620000  37.9669408 125.4869408  25.9330000
  35.0549408 120.9999408  27.6170000  35.2369408 121.8089408  27.1400000
  34.9239408 120.3429408  26.9330000  42.6159408 142.0489408  24.5270000
  42.7129408 141.7699408  25.4380000  43.1399408 141.4229408  24.0270000
  34.7479408 146.4299408   2.0810000  34.8309408 145.7089408   2.7050000
  33.9279408 146.8609408   2.3190000  39.2759408 146.4629408  14.7030000
  39.7309408 146.2569408  15.5190000  39.1089408 147.4049408  14.7520000
  53.3719408 149.3539408  16.9710000  53.3079408 148.3989408  16.9860000
  52.9949408 149.6059408  16.1290000  46.2559408 143.4489408  22.4580000
  45.9049408 143.5529408  21.5740000  45.4959408 143.5559408  23.0320000
  36.9949408 135.9949408  20.7340000  36.4209408 135.7369408  21.4560000
  36.9939408 136.9519408  20.7580000  46.4109408 147.9309408  16.0400000
  46.7929408 148.4529408  16.7440000  46.9819408 148.0879408  15.2870000
  44.1419408 144.1589408  24.0840000  43.6309408 143.3779408  24.2940000
  43.5819408 144.6599408  23.4910000  43.5379408 136.9969408  22.3460000
  44.1009408 136.3869408  22.8230000  43.4289408 136.5979408  21.4830000
  43.4829408 139.4799408  23.5240000  43.6019408 138.6709408  23.0260000
  44.1959408 139.4769408  24.1620000  35.5179408 140.8639408   0.6340000
  34.6129408 140.9029408   0.3240000  35.8689408 141.7369408   0.4600000
  33.9199408 143.7329408  27.9040000  33.7749408 142.7969408  27.7640000
  34.6069408 143.7729408  28.5690000  53.3409408 145.3679408  26.2690000
  53.8739408 145.7849408  25.5910000  52.6439408 145.9989408  26.4470000
  51.0999408 147.1969408  26.2780000  50.7519408 147.3389408  25.3980000
  51.3499408 148.0699408  26.5810000  44.6979408 145.7839408  19.6430000
  44.8279408 145.7939408  18.6940000  44.6369408 144.8559408  19.8670000
  41.6579408 149.4879408  25.1230000  41.5199408 150.2759408  25.6490000
  42.5939408 149.3049408  25.2060000  35.6269408 145.5319408  22.0670000
  36.1349408 145.9269408  21.3580000  35.2669408 144.7309408  21.6870000
  38.4599408 122.5539408  24.9290000  38.0919408 121.8119408  25.4080000
  38.4689408 123.2689408  25.5650000  33.5699408 140.9729408  27.9310000
  32.6959408 140.8599408  27.5580000  34.1639408 140.6609408  27.2500000
  54.5209408 137.0009408  22.3890000  55.1209408 136.3069408  22.6620000
  53.6929408 136.7869408  22.8180000  41.6979408 140.0789408  29.7730000
  40.8099408 139.8989408  29.4640000  42.0089408 139.2409408  30.1130000
  40.6369408 141.0749408  15.7480000  41.0509408 140.3259408  16.1760000
  40.8889408 140.9959408  14.8280000  37.8009408 137.6069408  26.9660000
  37.9509408 138.0929408  27.7770000  38.6709408 137.3129408  26.6970000
  44.6939408 147.6009408  29.4540000  43.7959408 147.3609408  29.6810000
  44.6029408 148.1929408  28.7070000  44.6019408 148.8039408  23.5100000
  45.1489408 148.3629408  24.1610000  44.6489408 149.7299408  23.7450000
  38.0119408 145.6129408  29.1090000  37.3469408 145.9979408  29.6800000
  37.5689408 145.4959408  28.2690000  47.2359408 145.8399408  24.2300000
  47.9919408 145.7569408  23.6490000  46.6439408 145.1399408  23.9550000
  46.3829408 145.0279408  16.5230000  45.9809408 144.9789408  15.6560000
  46.6939408 145.9299408  16.5930000  29.8979408 145.6919408  22.9550000
  29.7849408 144.8959408  23.4740000  30.8379408 145.7319408  22.7780000
  38.7329408 145.2859408   2.7840000  39.4529408 145.3559408   2.1580000
  38.2929408 146.1349408   2.7390000  56.7709408 123.6649408  22.7270000
  56.7729408 122.8369408  23.2070000  57.3549408 124.2339408  23.2270000
  35.4859408 137.0279408  25.4590000  35.3769408 136.1209408  25.7470000
  36.3439408 137.2849408  25.7970000  39.9189408 123.5539408  21.8240000
  39.1149408 123.4609408  22.3350000  40.5089408 122.8899408  22.1800000
  41.3379408 148.9519408  27.8980000  40.3879408 148.9459408  27.7800000
  41.6909408 148.7969408  27.0220000  38.4839408 132.6569408  12.7750000
  38.7579408 133.2109408  12.0450000  39.2489408 132.1129408  12.9640000
  34.8689408 142.0059408   4.4930000  35.4839408 142.3369408   3.8380000
  35.3879408 141.9349408   5.2950000  31.1839408 143.8679408   2.2820000
  31.7039408 143.3719408   1.6500000  31.6219408 143.7219408   3.1200000
  31.2759408 140.9209408  22.3260000  31.5259408 140.2529408  21.6880000
  31.9619408 141.5849408  22.2600000  37.4129408 146.2019408  20.0570000
  37.4249408 146.6489408  19.2110000  38.2419408 146.4469408  20.4690000
  40.8449408 122.1909408  28.1290000  39.9649408 121.9919408  27.8090000
  40.7209408 122.4099408  29.0520000  42.1609408 141.0939408  27.1720000
  41.3539408 141.5889408  27.0280000  42.4389408 141.3399408  28.0540000
  51.6459408 145.8579408  19.2480000  51.8839408 145.4889408  18.3980000
  51.1379408 145.1669408  19.6750000  31.9099408 146.0429408  26.4380000
  31.0299408 146.3809408  26.2760000  31.8099408 145.4669408  27.1960000
  56.5009408 143.4099408   3.8900000  57.2679408 143.2959408   3.3290000
  56.1529408 144.2679408   3.6490000  42.1069408 148.3369408  22.1520000
  42.8629408 148.3479408  22.7390000  41.9139408 149.2609408  21.9920000
  36.9049408 149.6589408  24.4020000  37.4049408 149.1249408  25.0190000
  37.5369408 149.8999408  23.7250000  45.8789408 122.1039408  21.6990000
  45.5149408 121.9559408  22.5720000  46.7829408 121.7959408  21.7610000
  38.8949408 141.6709408  19.8570000  38.2309408 141.5909408  19.1720000
  38.9859408 140.7849408  20.2080000  49.3409408 139.3989408  20.3370000
  49.0289408 139.1119408  19.4790000  48.5439408 139.5879408  20.8320000
  44.5349408 123.3569408  28.7370000  44.1719408 122.4879408  28.5610000
  45.0539408 123.5609408  27.9590000  47.1019408 135.7249408  25.9070000
  47.7749408 136.4049408  25.8650000  46.2939408 136.1989408  26.1020000
  43.0649408 121.5539408  20.0000000  43.9649408 121.6039408  20.3230000
  42.9399408 120.6309408  19.7800000  38.2529408 121.2669408  28.1430000
  37.5959408 121.4079408  28.8250000  38.1889408 120.3329408  27.9390000
  40.1359408 142.0139408  23.1660000  40.2959408 142.4989408  22.3560000
  40.9959408 141.9489408  23.5810000  48.4869408 128.0279408   1.6070000
  49.1999408 128.3819408   2.1380000  48.0509408 128.7999408   1.2450000
  45.1319408 137.2609408  26.3960000  45.2409408 137.6919408  27.2440000
  44.5449408 136.5269408  26.5740000  37.2789408 146.4109408  26.2950000
  36.3539408 146.2849408  26.0820000  37.7199408 146.4259408  25.4460000
  44.4529408 140.9099408   3.7780000  44.3679408 140.7669408   2.8350000
  45.0229408 140.2019408   4.0770000  37.1399408 147.5469408  17.6840000
  36.8289408 147.2759408  16.8200000  36.5409408 148.2459408  17.9460000
  55.0939408 123.0129408  25.4040000  54.7599408 122.6939408  24.5660000
  55.6369408 122.2969408  25.7340000  45.7979408 148.7229408   3.2530000
  45.6619408 147.7969408   3.0530000  45.1299408 149.1799408   2.7420000
  39.0859408 121.1759408   1.1750000  38.4019408 120.5059408   1.1510000
  38.6729408 121.9539408   0.8020000  38.0329408 149.1679408  10.5370000
  38.6119408 148.8459408  11.2270000  37.5109408 149.8489408  10.9610000
  42.8329408 136.8609408  13.8650000  42.4649408 135.9809408  13.9370000
  42.1939408 137.3459408  13.3420000  38.4229408 148.5869408  27.7970000
  38.0969408 148.0029408  27.1120000  38.0209408 148.2599408  28.6020000
  43.1219408 135.2349408  26.3590000  42.9999408 134.2859408  26.3360000
  43.2029408 135.4879408  25.4390000  35.5019408 120.1759408  20.8970000
  35.1519408 120.8029408  21.5300000  35.3639408 119.3209408  21.3060000
  44.6709408 127.7959408   5.3550000  45.3629408 127.6749408   4.7050000
  44.3999408 126.9069408   5.5840000  42.2429408 126.3459408   7.8770000
  43.0639408 125.9189408   7.6340000  41.5769408 125.9019408   7.3520000
  40.7739408 126.2109408  29.9660000  41.1209408 126.8889408  30.5450000
  40.1539408 126.6719408  29.4000000  54.9609408 135.1169408   6.4150000
  54.0719408 135.3439408   6.1410000  55.4919408 135.8699408   6.1570000
  49.3769408 127.5459408  12.7920000  49.5639408 127.9789408  11.9590000
  48.9799408 128.2279408  13.3340000  59.9389408 132.9329408  20.1570000
  59.2409408 133.5489408  19.9330000  59.5489408 132.0699408  20.0180000
  53.4369408 128.0999408  14.6000000  53.0629408 128.4679408  13.7990000
  53.0709408 127.2169408  14.6520000  57.4789408 123.9939408  10.6530000
  57.3369408 124.2939408   9.7560000  57.7139408 123.0699408  10.5640000
  53.8419408 127.9109408  11.1330000  53.2649408 128.4849408  10.6300000
  54.5029408 127.6239408  10.5030000  54.1399408 121.3499408  10.9420000
  53.2239408 121.4689408  11.1920000  54.1099408 120.7419408  10.2040000
  52.8249408 141.8459408  29.9020000  53.1099408 141.1609408  30.5080000
  53.3979408 141.7459408  29.1420000  30.0609408 126.7279408  17.5830000
  30.7789408 127.3319408  17.7720000  29.7179408 127.0209408  16.7390000
  49.3879408 132.0239408   1.7080000  48.4449408 132.1189408   1.5730000
  49.5609408 131.0969408   1.5410000  48.6229408 124.8899408  12.5080000
  49.1929408 124.4829408  11.8550000  48.9969408 125.7609408  12.6440000
  58.2209408 143.3229408  14.8680000  57.5639408 143.4529408  14.1850000
  59.0359408 143.1649408  14.3900000  57.7609408 122.7849408   3.9490000
  58.2159408 122.0179408   3.6010000  57.0409408 122.9349408   3.3370000
  45.8699408 127.0169408   0.6600000  45.2029408 126.8519408   1.3270000
  46.4569408 127.6569408   1.0610000  49.5339408 137.2399408  26.6460000
  50.2919408 136.8729408  26.1910000  49.5379408 136.8119408  27.5020000
  55.9399408 125.4359408  14.7680000  56.1589408 125.8389408  13.9280000
  55.7629408 124.5199408  14.5560000  55.4509408 126.9699408   5.4990000
  54.8859408 126.2069408   5.3780000  55.7639408 127.1789408   4.6180000
  30.4629408 142.8909408  13.2580000  30.2129408 141.9829408  13.0880000
  31.3599408 142.8359408  13.5870000  44.7979408 131.2589408  20.4950000
  44.1209408 131.7319408  20.0110000  45.3779408 131.9449408  20.8280000
  48.4659408 143.8039408   9.1880000  48.8379408 144.6159408   8.8460000
  48.9149408 143.1109408   8.7040000  46.7079408 127.0059408   3.8860000
  47.1969408 127.5149408   3.2390000  46.7849408 126.0999408   3.5860000
  35.6159408 123.9159408  17.9620000  36.1299408 123.4149408  18.5940000
  35.1099408 123.2559408  17.4870000  55.2969408 125.6169408  19.7390000
  56.1719408 125.2819408  19.5430000  54.9219408 125.8239408  18.8830000
  40.5079408 127.1349408  20.9140000  41.3479408 126.7929408  20.6060000
  40.6289408 127.2549408  21.8560000  35.4309408 128.9249408  13.3460000
  34.5449408 128.8439408  13.6980000  35.4069408 129.7229408  12.8170000
  59.5329408 120.6999408   3.3760000  60.1959408 120.7629408   2.6890000
  59.1429408 119.8339408   3.2540000  49.1209408 131.3209408  13.8360000
  48.7309408 131.3989408  12.9650000  48.7629408 132.0599408  14.3270000
  53.4509408 136.6139408  17.9200000  53.0099408 137.2459408  17.3520000
  52.8429408 136.4799408  18.6470000  31.2429408 145.3819408  11.0890000
  31.8839408 144.7989408  10.6820000  30.4409408 144.8619408  11.1370000
  30.5589408 123.4369408   2.1060000  30.9039408 123.9419408   1.3700000
  29.6199408 123.3699408   1.9320000  55.4529408 143.0009408   6.3470000
  56.1639408 142.5919408   6.8410000  55.8259408 143.1649408   5.4810000
  49.8289408 132.1619408   4.8400000  50.2879408 132.3219408   5.6640000
  49.5549408 133.0299408   4.5450000  48.0169408 127.0069408  27.2190000
  47.3259408 126.5609408  27.7080000  48.0999408 126.5049408  26.4080000
  55.5609408 131.1319408  15.4750000  55.1189408 130.5969408  16.1340000
  54.8589408 131.6419408  15.0700000  31.6959408 134.5629408   5.6540000
  31.0739408 134.5129408   4.9270000  31.7619408 133.6639408   5.9750000
  56.7429408 123.6139408  17.8620000  56.4659408 124.0829408  17.0750000
  56.0469408 122.9769408  18.0200000  51.6259408 139.4869408   1.2030000
  52.4039408 139.0829408   1.5860000  51.3859408 140.1789408   1.8190000
  49.8959408 127.7829408  29.2340000  49.4559408 127.5179408  28.4260000
  49.2739408 127.5689408  29.9280000  59.2179408 143.7659408   5.8380000
  59.3659408 144.3189408   5.0710000  59.4309408 142.8809408   5.5410000
  51.2669408 120.7559408   8.5830000  51.3999408 121.0999408   9.4660000
  50.5919408 120.0849408   8.6870000  54.1839408 124.4299408  29.2750000
  53.9199408 125.0219408  28.5710000  53.4349408 124.4179408  29.8720000
  57.0209408 120.6149408  23.3560000  56.1119408 120.3729408  23.1770000
  57.4589408 119.7839408  23.5400000  57.0549408 140.3509408  13.5330000
  56.2059408 140.0659408  13.1960000  57.4329408 139.5649408  13.9270000
  53.3629408 125.0449408  11.8150000  53.7649408 125.8809408  11.5770000
  54.1039408 124.4649408  11.9930000  54.9759408 121.0289408  20.1130000
  54.6729408 121.3969408  19.2830000  54.4759408 121.4979408  20.7810000
  52.5319408 143.9129408  16.2690000  53.3199408 143.8259408  16.8050000
  52.8589408 144.0669408  15.3830000  56.3219408 127.4929408  23.9420000
  56.3019408 126.7529408  24.5480000  57.1049408 127.9849408  24.1900000
  30.1739408 131.8329408  11.6060000  30.4409408 131.6049408  12.4960000
  30.8999408 132.3529408  11.2630000  55.7369408 139.1459408   8.1800000
  54.8499408 139.1279408   8.5390000  56.1869408 138.4239408   8.6170000
  46.6539408 129.5689408   7.1000000  46.2859408 129.1019408   6.3490000
  47.5579408 129.2609408   7.1550000  48.3429408 145.7469408   6.0430000
  48.8659408 144.9999408   5.7510000  47.5969408 145.7659408   5.4440000
  34.7929408 145.8129408   5.2480000  34.3529408 146.6369408   5.4600000
  34.0799408 145.1949408   5.0880000  53.2419408 143.1659408  10.4920000
  52.9709408 143.7249408   9.7630000  52.5509408 142.5069408  10.5570000
  55.7379408 146.5139408  16.0000000  55.5399408 145.6189408  15.7260000
  54.8859408 146.8929408  16.2160000  30.0309408 126.3349408   7.2890000
  29.4529408 125.8939408   6.6650000  30.7089408 126.7369408   6.7450000
  35.4109408 121.6389408  14.1010000  36.3529408 121.5459408  13.9540000
  35.1199408 122.2449408  13.4200000  50.9789408 131.3509408  28.1040000
  51.4849408 130.7389408  28.6380000  51.4719408 131.4199408  27.2860000
  42.0409408 123.7889408   0.3090000  41.4489408 124.5119408   0.1020000
  42.7159408 123.8299408  -0.3690000  54.4599408 122.0869408  17.5660000
  54.6979408 122.1839408  16.6440000  53.9199408 121.2969408  17.5930000
  38.5499408 124.3989408  19.4280000  39.1569408 124.0959408  20.1040000
  37.8149408 123.7869408  19.4750000  57.6739408 127.2299408  28.4930000
  58.1929408 128.0039408  28.2730000  57.5139408 126.7999408  27.6530000
  51.2339408 121.7299408  11.0500000  51.0569408 121.7479408  11.9900000
  51.0979408 122.6329408  10.7630000  52.1169408 126.2239408  16.4610000
  51.5759408 126.8179408  16.9810000  51.6809408 126.1839408  15.6100000
  47.0459408 129.7769408  30.0950000  46.9329408 130.7139408  30.2500000
  47.3599408 129.7189408  29.1920000  57.9949408 121.5439408   9.2960000
  57.6689408 120.7739408   9.7610000  57.5859408 121.4939408   8.4320000
  34.1849408 139.2609408  15.5620000  33.2749408 139.4589408  15.3410000
  34.2369408 139.3929408  16.5080000  51.5719408 136.0879408  19.4610000
  51.2589408 136.5549408  20.2350000  52.0279408 135.3219408  19.8100000
  54.5889408 132.8039408  18.0590000  55.3309408 132.2919408  17.7360000
  54.9889408 133.5189408  18.5550000  32.6959408 124.0899408  21.8710000
  32.3059408 123.5869408  21.1560000  32.9999408 124.8979408  21.4560000
  59.8669408 142.4849408  23.7190000  60.5199408 142.0109408  23.2050000
  59.1229408 142.5889408  23.1250000  52.9719408 149.7709408   6.6800000
  52.3179408 150.1079408   7.2920000  53.6439408 149.3789408   7.2390000
  60.0319408 129.3559408   7.3470000  59.0959408 129.2539408   7.5190000
  60.1719408 128.9109408   6.5120000  42.1399408 127.4559408  12.2220000
  43.0799408 127.4309408  12.0430000  41.9669408 126.6499408  12.7080000
  52.2569408 132.3619408  11.4830000  51.7519408 133.1539408  11.2990000
  52.2079408 131.8529408  10.6740000  57.9939408 128.9349408  18.7130000
  58.8849408 128.7869408  19.0320000  57.4419408 128.4079408  19.2910000
  55.9349408 141.0989408  28.9360000  55.4299408 141.0179408  28.1280000
  56.4369408 141.9069408  28.8260000  32.6369408 128.9269408   8.6340000
  33.0599408 129.1289408   9.4690000  31.7709408 129.3279408   8.7010000
  31.9669408 128.2519408  18.4270000  32.8179408 128.6559408  18.5950000
  31.4089408 128.5619408  19.1400000  57.5039408 125.9579408  12.6760000
  57.6349408 125.1329408  12.2080000  57.4329408 126.6169408  11.9850000
  36.0659408 123.5049408   3.3350000  35.7129408 124.3689408   3.5490000
  35.3759408 123.0859408   2.8200000  46.8479408 149.6619408  10.6200000
  46.3209408 149.0759408  11.1630000  46.2789408 149.8849408   9.8840000
  35.8869408 130.2809408   5.3640000  35.6359408 130.8369408   6.1020000
  35.8729408 130.8659408   4.6070000  52.0509408 147.8479408  21.3780000
  52.2919408 147.3129408  20.6220000  52.4079408 148.7149408  21.1820000
  56.0049408 148.4509408  20.5770000  55.3879408 147.8689408  20.1320000
  55.6789408 149.3319408  20.3920000  45.9519408 135.9449408   0.6750000
  45.0699408 135.6069408   0.8280000  46.3909408 135.2529408   0.1800000
  52.1649408 127.7679408   8.6350000  53.0789408 127.4839408   8.6030000
  52.1279408 128.5239408   8.0490000  54.3869408 130.8979408   7.2380000
  54.6949408 131.3449408   8.0260000  55.0989408 131.0059408   6.6070000
  50.4669408 147.5979408  16.5020000  50.0149408 148.4079408  16.7400000
  49.9129408 146.9009408  16.8520000  47.1799408 144.4859408  11.5940000
  47.1339408 144.0919408  10.7230000  47.8769408 145.1389408  11.5260000
  57.1109408 127.9229408  10.7590000  56.6699408 128.6599408  11.1820000
  57.2859408 128.2279408   9.8680000  54.4309408 128.2329408   0.1660000
  54.9999408 128.8329408  -0.3160000  54.9499408 127.9689408   0.9260000
  57.6649408 137.8339408  20.4340000  57.0099408 137.9209408  21.1270000
  57.7929408 138.7259408  20.1110000  50.4459408 125.7249408   5.9510000
  50.6899408 124.9389408   6.4390000  51.2809408 126.0999408   5.6680000
  34.0989408 137.2339408  20.9040000  33.5579408 137.6299408  20.2210000
  34.7849408 137.8809408  21.0720000  53.0409408 145.6989408   7.7480000
  52.2169408 146.1149408   7.4950000  53.0589408 144.8799408   7.2530000
  45.0709408 123.1099408  11.9730000  45.9309408 122.7019408  11.8700000
  44.5769408 122.4959408  12.5170000  31.2549408 126.8109408  14.1630000
  30.3669408 126.7379408  14.5100000  31.5479408 127.6809408  14.4330000
  31.2039408 138.3319408   8.1590000  31.7869408 138.4599408   8.9080000
  30.4139408 137.9419408   8.5330000  40.8509408 138.0429408  20.5640000
  41.5169408 137.8769408  19.8970000  40.6929408 137.1879408  20.9640000
  55.3289408 133.5029408  11.5810000  55.0329408 134.2309408  12.1270000
  56.1189408 133.1829408  12.0170000  57.1119408 147.8559408  14.3000000
  56.6299408 147.3489408  14.9530000  58.0099408 147.8809408  14.6300000
  54.7879408 122.1149408   5.8990000  54.1839408 121.3719408   5.9120000
  55.6579408 121.7159408   5.9040000  49.4179408 135.1679408  16.0930000
  50.2329408 134.6729408  16.0060000  49.6999408 136.0539408  16.3210000
  57.7659408 133.5989408   3.8470000  57.7389408 133.8419408   4.7720000
  57.9009408 134.4269408   3.3850000  35.1689408 134.5189408  16.3780000
  35.8409408 134.4369408  17.0540000  34.4199408 134.9079408  16.8290000
  52.8469408 134.3839408  29.2860000  53.0729408 135.2939408  29.4810000
  52.3399408 134.4319408  28.4760000  54.5049408 123.7859408   8.3370000
  54.6659408 123.1259408   7.6630000  55.3689408 123.9629408   8.7110000
  57.8919408 135.9599408   1.8140000  57.0629408 135.4949408   1.6950000
  58.2699408 136.0039408   0.9360000  51.4209408 125.9589408  13.7260000
  50.7449408 126.4539408  13.2630000  52.0389408 125.6999408  13.0420000
  34.4059408 130.8699408   1.0480000  33.6999408 131.4429408   1.3470000
  35.1239408 131.0339408   1.6600000  47.9489408 137.1749408  11.2960000
  47.9059408 136.2389408  11.0990000  48.8179408 137.2979408  11.6800000
  55.4809408 131.9639408   9.4060000  55.1199408 132.5119408  10.1030000
  56.2799408 131.5939408   9.7810000  57.2379408 124.9699408   8.0610000
  57.3909408 125.8909408   8.2740000  57.5609408 124.8749408   7.1650000
  54.1389408 128.9709408  24.3760000  53.4629408 128.4299408  23.9690000
  54.9209408 128.4189408  24.3760000  46.7859408 138.4209408   1.6810000
  46.7219408 137.5299408   1.3370000  47.4129408 138.8559408   1.1040000
  52.8489408 133.5719408  19.9600000  53.5609408 133.2709408  19.3950000
  52.1069408 133.0129408  19.7290000  53.2589408 120.4689408  14.2250000
  53.7039408 119.7619408  13.7580000  53.9489408 121.1049408  14.4120000
  38.5139408 138.9249408   4.6940000  38.4449408 137.9949408   4.9100000
  37.8739408 139.0569408   3.9950000  30.9149408 132.1979408   3.5130000
  30.7669408 132.8599408   2.8380000  30.2449408 131.5339408   3.3490000
  46.2619408 125.6629408  11.8050000  47.1559408 125.3529408  11.9450000
  45.7269408 124.8699408  11.8260000  55.2609408 122.5219408  15.1500000
  56.1599408 122.1979408  15.2140000  55.1129408 122.6349408  14.2110000
  56.0369408 129.7699408  12.4210000  56.3529408 129.1019408  13.0300000
  55.0999408 129.8379408  12.6050000  53.0209408 128.4339408   3.5050000
  53.2149408 129.3699408   3.4500000  53.4379408 128.1499408   4.3190000
  48.3969408 121.7669408   4.5070000  48.1719408 121.0319408   5.0770000
  49.3529408 121.8069408   4.5340000  57.9889408 129.2129408  25.4190000
  58.5799408 129.2639408  26.1700000  57.4759408 130.0199408  25.4620000
  59.4079408 140.4649408  12.4830000  58.5159408 140.4729408  12.8300000
  59.2959408 140.4509408  11.5330000  49.9099408 128.3669408  10.0660000
  49.9099408 129.2509408   9.6990000  50.6139408 127.9149408   9.6030000
  52.6919408 131.3699408  26.1520000  52.7639408 130.5559408  25.6530000
  53.5839408 131.5479408  26.4510000  52.3429408 137.8229408  13.7280000
  52.4789408 138.5569408  14.3260000  51.4959408 137.9999408  13.3180000
  48.5539408 138.9259408  24.6820000  48.7939408 138.2999408  25.3660000
  49.3529408 139.4279408  24.5250000  30.9789408 131.7839408   6.4660000
  30.8059408 131.5689408   5.5490000  30.8379408 130.9619408   6.9360000
  48.5449408 126.2349408   8.9460000  48.6869408 126.3049408   8.0020000
  48.8589408 127.0669408   9.2990000  47.5829408 122.1169408  11.6990000
  47.5359408 121.9249408  12.6360000  47.4419408 121.2719408  11.2740000
  53.0879408 126.0449408   2.2860000  53.1179408 126.9629408   2.5550000
  52.5769408 126.0479408   1.4770000  49.4299408 149.0179408   0.8690000
  50.3869408 149.0099408   0.8630000  49.1899408 148.4979408   1.6360000
  53.0929408 124.5809408  26.6170000  53.7929408 124.1529408  26.1250000
  52.4559408 124.8409408  25.9520000  59.4029408 141.3029408  16.8030000
  59.1189408 142.1149408  16.3830000  60.2919408 141.4879408  17.1050000
  59.9999408 123.3119408   8.7350000  59.2879408 122.6869408   8.8720000
  59.6239408 124.1599408   8.9690000  37.9229408 120.9289408   7.0610000
  38.3859408 121.4039408   7.7510000  37.6119408 121.6119408   6.4670000
  56.0629408 126.2019408   2.8730000  56.7759408 126.4759408   2.2960000
  55.4759408 125.7009408   2.3070000  55.4119408 140.8149408   1.5320000
  55.4999408 140.9999408   0.5970000  56.2239408 140.3649408   1.7650000
  58.3659408 125.4669408  19.3010000  58.8039408 125.9929408  18.6320000
  58.0599408 124.6899408  18.8330000  43.7059408 120.8079408  28.7940000
  42.8089408 120.6749408  29.0990000  44.2449408 120.6919408  29.5770000
  50.9419408 124.3839408  17.7550000  50.5819408 123.9059408  17.0080000
  51.5239408 125.0359408  17.3640000  49.5519408 133.4549408  29.3200000
  49.6209408 132.9329408  30.1200000  49.9389408 132.9039408  28.6400000
  59.4049408 129.7769408   1.2160000  59.7829408 129.6169408   0.3520000
  58.8879408 128.9919408   1.4010000  53.8139408 136.7889408  29.7140000
  53.7769408 137.3819408  30.4640000  54.6549408 136.9789408  29.2980000
  32.6029408 136.3849408  27.6050000  32.3689408 136.0419408  26.7430000
  33.5349408 136.1849408  27.6980000  51.4199408 133.2069408  24.2540000
  51.6209408 132.3409408  24.6100000  51.2789408 133.0559408  23.3200000
  54.3839408 136.4509408  26.5200000  54.4989408 137.3369408  26.1780000
  54.0379408 136.5779408  27.4040000  59.1759408 130.3779408  22.4850000
  58.2839408 130.5879408  22.2080000  59.0939408 130.1619408  23.4140000
  57.5159408 131.6489408  18.8270000  57.5849408 130.6959408  18.7670000
  57.6049408 131.8379408  19.7610000  58.1189408 133.0759408  23.9840000
  58.7619408 132.6759408  24.5710000  57.4529408 133.4369408  24.5690000
  30.9759408 133.9229408  26.7960000  31.2779408 134.0099408  27.7000000
  31.7439408 133.6149408  26.3150000  54.1129408 121.7349408  28.1150000
  54.7809408 121.4299408  27.5010000  54.4059408 122.6089408  28.3730000
  51.7639408 133.3609408   2.3840000  51.7739408 133.7069408   1.4920000
  50.9559408 132.8499408   2.4340000  30.6829408 124.4809408  26.5800000
  30.8219408 124.3349408  25.6450000  30.8769408 125.4089408  26.7100000
  58.0309408 145.7699408   0.2010000  57.6519408 146.3839408  -0.4290000
  58.7909408 146.2309408   0.5560000  32.9169408 130.2559408  22.9200000
  32.3259408 130.8239408  22.4250000  33.4999408 130.8599408  23.3800000
  51.1939408 124.9999408  24.4080000  50.3499408 125.2639408  24.7730000
  51.2559408 124.0639408  24.5980000  56.5439408 125.5789408  25.9390000
  55.8209408 124.9659408  25.8060000  57.3229408 125.0939408  25.6660000
  58.7599408 148.1839408   3.0480000  58.8759408 147.2849408   3.3560000
  59.4779408 148.3219408   2.4310000  32.6489408 127.0719408  23.3300000
  32.9159408 127.8839408  22.8980000  32.1039408 126.6239408  22.6820000
  52.4329408 144.4709408   0.8190000  51.6569408 144.3989408   1.3750000
  52.5059408 143.6149408   0.3970000  57.0089408 127.7539408  20.9100000
  57.1639408 127.5669408  21.8360000  56.1749408 127.3249408  20.7160000
  33.2349408 138.6979408  24.7910000  32.6099408 137.9739408  24.8150000
  34.0829408 138.2909408  24.9680000  35.1829408 135.2449408  28.7310000
  35.2499408 134.6459408  27.9880000  36.0909408 135.4169408  28.9820000
  49.5569408 139.2589408   4.7920000  49.8279408 138.5009408   4.2750000
  49.5719408 139.9889408   4.1730000  56.9399408 130.5709408   5.5480000
  57.2969408 131.4359408   5.7460000  57.5429408 130.2049408   4.9000000
  52.1869408 127.3489408  23.2340000  52.6329408 127.2299408  22.3960000
  51.9849408 126.4599408  23.5270000  53.0549408 146.8219408  15.9560000
  52.1179408 146.8199408  16.1500000  53.1779408 146.0819408  15.3610000
  56.0829408 134.9759408  22.9120000  56.8299408 134.5689408  22.4730000
  56.1679408 134.7089408  23.8270000  31.7139408 124.7479408   4.2270000
  31.3929408 124.3309408   3.4270000  31.0859408 124.4889408   4.9010000
  56.7119408 148.8939408   1.2240000  57.5319408 148.5429408   1.5710000
  56.3319408 149.3829408   1.9540000  54.2559408 143.5429408  18.3680000
  54.2759408 142.7569408  18.9150000  55.1489408 143.6239408  18.0320000
  57.4089408 148.0439408  28.3580000  56.8659408 148.5749408  28.9420000
  58.0689408 148.6529408  28.0260000  36.1619408 141.5309408  25.3790000
  36.6229408 142.3089408  25.0660000  36.8009408 140.8229408  25.2930000
  54.1759408 138.5089408   1.7660000  54.5339408 139.3739408   1.5650000
  54.8279408 138.1069408   2.3410000  55.2449408 135.1359408  19.2390000
  54.6809408 135.3399408  19.9860000  55.0279408 135.8009408  18.5860000
  57.8889408 122.9389408   0.7890000  57.1389408 122.3659408   0.9500000
  57.5709408 123.8159408   1.0000000  47.5889408 125.9449408  21.8650000
  47.9269408 125.0509408  21.9150000  48.2399408 126.4199408  21.3480000
  48.6329408 123.7929408  27.6990000  49.4459408 123.2949408  27.6140000
  48.5859408 124.0199408  28.6280000  59.2179408 131.7099408  26.2810000
  59.3859408 131.1539408  27.0420000  59.5759408 132.5639408  26.5240000
  50.0679408 126.6019408  20.6770000  50.4109408 125.7399408  20.4420000
  50.8469408 127.1369408  20.8290000  59.4139408 123.1659408  16.0720000
  59.2369408 122.3849408  16.5970000  58.9069408 123.8589408  16.4960000
  56.1419408 132.3979408  27.6270000  55.4329408 132.2329408  28.2480000
  56.9029408 132.5879408  28.1750000  47.8799408 127.6249408  24.1220000
  47.7579408 126.6759408  24.0920000  47.0159408 127.9709408  24.3480000
  51.5639408 135.6829408  25.4200000  52.2419408 135.5029408  26.0710000
  51.3869408 134.8329408  25.0160000  59.8499408 122.5939408  28.7080000
  59.3119408 122.9239408  29.4270000  59.7199408 123.2259408  28.0010000
  54.0009408 124.7069408   5.0710000  53.8849408 124.5229408   4.1390000
  54.2479408 123.8649408   5.4530000  58.6979408 124.9809408  23.9730000
  59.2289408 125.6649408  24.3820000  59.2709408 124.2149408  23.9480000
  32.5169408 123.7909408  28.9940000  32.3399408 124.7299408  29.0370000
  32.0049408 123.4829408  28.2460000  39.8899408 131.8059408  17.1790000
  40.2009408 131.2239408  17.8720000  40.1229408 131.3559408  16.3660000
  32.2539408 135.9619408  24.7120000  31.4929408 135.4689408  24.4070000
  33.0069408 135.4519408  24.4130000  50.1359408 136.2199408  28.9780000
  49.9219408 135.3049408  28.7990000  50.5769408 136.2019408  29.8280000
  50.0029408 129.2039408  23.4090000  50.8009408 128.6759408  23.4560000
  49.3039408 128.6049408  23.6730000  53.6059408 132.7209408  14.1930000
  53.3069408 132.6279408  13.2890000  53.8659408 133.6389408  14.2670000
  51.9269408 138.4589408  27.4240000  51.6859408 139.2179408  27.9550000
  51.2059408 137.8409408  27.5460000  50.6599408 140.6539408  28.5530000
  50.8069408 140.9329408  29.4560000  50.5649408 141.4699408  28.0610000
  53.0969408 127.0939408  20.7320000  53.5719408 127.7899408  20.2780000
  53.5829408 126.2959408  20.5220000  30.1209408 127.1739408  25.0360000
  31.0009408 127.3079408  24.6820000  29.6779408 128.0119408  24.9010000
  51.2829408 124.2129408  10.2370000  52.1709408 124.4309408  10.5200000
  50.9569408 125.0169408   9.8310000  35.2779408 131.5559408   7.5480000
  34.8449408 130.9229408   8.1220000  35.5749408 132.2489408   8.1370000
  36.0519408 126.0389408  12.9900000  36.7619408 125.9259408  12.3580000
  35.9799408 126.9859408  13.1040000  55.8779408 134.2189408  25.3820000
  55.9199408 133.5969408  26.1090000  55.3539408 134.9449408  25.7190000
  56.9689408 146.1229408  22.1750000  57.8909408 146.2139408  22.4190000
  56.8059408 146.8519408  21.5770000  30.5089408 129.7659408  13.8980000
  29.8269408 129.7809408  14.5700000  30.2249408 129.0889408  13.2830000
  52.0069408 133.9469408  16.1180000  52.6479408 133.3789408  15.6900000
  52.4899408 134.3509408  16.8390000  51.3509408 143.5839408  27.1550000
  52.0519408 144.1379408  26.8110000  50.8199408 144.1729408  27.6900000
  33.1369408 135.9089408  17.4420000  33.2879408 136.7359408  17.8990000
  32.3239408 136.0479408  16.9560000  54.1139408 123.7159408  21.1230000
  54.5879408 124.4759408  20.7840000  54.5419408 123.5189408  21.9560000
  29.8739408 129.2279408  27.4500000  30.4399408 129.4969408  26.7260000
  30.4529408 128.7489408  28.0430000  43.7419408 126.4529408  15.6390000
  44.2449408 126.8479408  14.9270000  43.4279408 127.1979408  16.1520000
  58.1879408 132.5169408  29.3490000  59.0379408 132.9559408  29.3450000
  58.2049408 131.9679408  30.1330000  33.9139408 134.3159408  20.0960000
  33.3239408 135.0459408  20.2810000  33.8699408 134.2069408  19.1460000
  49.3529408 129.0949408  19.9650000  48.9699408 129.8979408  20.3180000
  49.1119408 128.4159408  20.5960000  47.2159408 122.2419408  14.2630000
  47.4569408 121.6839408  15.0030000  46.9959408 123.0849408  14.6600000
  35.4609408 134.3169408  26.1370000  34.8509408 133.6819408  25.7600000
  36.2679408 133.8219408  26.2740000  36.1759408 123.6459408  23.8610000
  37.0319408 123.4339408  24.2340000  35.6269408 123.8449408  24.6190000
  30.6509408 134.1239408  23.5250000  29.7119408 133.9479408  23.5810000
  30.9809408 133.4709408  22.9080000  32.0539408 132.5049408  21.6720000
  32.7779408 133.0489408  21.3630000  31.3189408 132.7389408  21.1060000
  57.4739408 128.2959408   7.3770000  57.0789408 129.0559408   6.9490000
  57.4529408 127.6089408   6.7110000  34.6389408 128.2059408   0.3610000
  34.5499408 129.1419408   0.5400000  35.5799408 128.0399408   0.4160000
  33.5789408 125.2939408  14.7230000  34.2869408 125.7469408  14.2640000
  32.8469408 125.9109408  14.7040000  44.3679408 128.5949408  20.4910000
  44.4269408 129.5469408  20.5680000  44.3979408 128.4279408  19.5490000
  32.4339408 149.4479408  21.3220000  31.7669408 148.7629408  21.3040000
  32.1439408 150.0829408  20.6670000  49.6399408 137.0629408  21.6660000
  50.2749408 137.2579408  22.3550000  49.4069408 137.9179408  21.3040000
  57.1349408 132.3819408  21.4320000  56.3539408 131.8949408  21.6950000
  57.7049408 132.3559408  22.2000000  31.7099408 124.5589408  17.3620000
  31.2679408 124.1129408  16.6390000  31.0809408 125.2169408  17.6580000
  33.7859408 123.1389408   5.5410000  34.7399408 123.2159408   5.5740000
  33.5029408 123.8839408   5.0110000  52.3099408 130.3559408  21.7640000
  51.7209408 131.1059408  21.6740000  51.7629408 129.6659408  22.1410000
  58.6129408 140.5529408  20.3810000  59.2029408 140.8629408  21.0670000
  58.5069408 141.3039408  19.7970000  48.5159408 145.7009408   0.7170000
  48.6129408 146.6029408   1.0230000  49.1969408 145.5999408   0.0510000
  54.3199408 135.3179408  13.4330000  53.7379408 136.0469408  13.2200000
  54.8819408 135.6559408  14.1310000  52.5469408 135.5769408   4.2880000
  51.8889408 136.0879408   3.8160000  52.4899408 134.7009408   3.9070000
  49.5539408 120.0589408  17.2370000  49.8519408 120.3489408  16.3750000
  48.6799408 120.4369408  17.3290000  54.5779408 146.1839408  19.7680000
  55.3119408 145.7339408  19.3490000  53.8019408 145.8429408  19.3220000
  51.9709408 149.7309408   4.2900000  51.4919408 150.5529408   4.3860000
  52.2929408 149.5359408   5.1700000  49.7779408 143.9979408  13.5600000
  50.2779408 144.1409408  12.7560000  50.3799408 143.5269408  14.1360000
  46.2369408 122.5929408   7.0360000  46.4979408 121.7169408   6.7530000
  47.0569408 123.0199408   7.2820000  47.8549408 123.6489408   8.8230000
  48.0219408 124.5789408   8.9790000  47.6949408 123.2839408   9.6930000
  50.3289408 144.1079408   2.8240000  49.6049408 144.5969408   2.4350000
  50.2499408 144.2699408   3.7640000  51.6989408 120.0119408  19.4060000
  52.3109408 119.7979408  18.7010000  50.9559408 120.4209408  18.9620000
  57.1489408 141.4149408   8.1260000  57.0169408 141.9989408   8.8730000
  56.3659408 140.8649408   8.1090000  51.1139408 122.1109408   4.7390000
  51.1109408 122.6599408   5.5240000  51.5609408 122.6399408   4.0780000
  52.0079408 130.1399408  16.2200000  51.9829408 130.3189408  15.2790000
  52.8879408 129.7949408  16.3750000  46.6089408 138.0909408  13.3550000
  46.7289408 137.5009408  12.6110000  47.4469408 138.5439408  13.4390000
  57.8639408 137.4319408   9.3610000  57.7469408 137.2979408  10.3010000
  58.3079408 138.2779408   9.2930000  31.0329408 145.6039408  13.9710000
  30.2089408 145.2399408  14.2930000  31.2309408 145.0919408  13.1870000
  31.9339408 149.6879408  18.6420000  32.2469408 148.7839408  18.6550000
  31.5109408 149.7829408  17.7880000  31.1559408 138.4609408  20.0400000
  30.2709408 138.7809408  19.8660000  31.0349408 137.5459408  20.2950000
  32.0799408 148.3339408   3.5080000  31.6479408 148.7749408   2.7770000
  32.4669408 149.0439408   4.0210000  47.4589408 139.6149408   6.9330000
  46.5709408 139.2699408   7.0270000  47.7209408 139.3639408   6.0470000
  55.5019408 145.3549408  28.7860000  56.3499408 144.9159408  28.7100000
  55.0439408 145.1329408  27.9750000  56.6749408 137.5639408  13.5590000
  56.2789408 137.7839408  14.4030000  56.8119408 136.6169408  13.5990000
  49.9319408 143.5469408   5.4520000  49.4589408 142.7149408   5.4690000
  50.8459408 143.3059408   5.6030000  53.0439408 141.6259408  13.4910000
  52.5689408 141.6099408  12.6600000  53.9519408 141.4399408  13.2520000
  51.5259408 147.0239408   3.9340000  51.8329408 146.7029408   3.0860000
  51.8009408 147.9409408   3.9570000  52.5659408 143.1829408   6.2490000
  52.5139408 142.3989408   6.7960000  53.4839408 143.2299408   5.9820000
  32.7359408 143.2419408  21.7040000  32.8889408 143.6109408  20.8350000
  32.5469408 143.9999408  22.2570000  55.2289408 123.2469408  12.4100000
  54.8559408 122.6399408  11.7710000  56.0849408 123.4789408  12.0500000
  33.0529408 146.7679408  15.5720000  32.4119408 146.2939408  15.0430000
  33.1159408 147.6289408  15.1590000  54.1119408 141.8259408   3.7350000
  54.7569408 142.4489408   4.0690000  54.4369408 141.5849408   2.8680000
  55.3229408 136.5199408   3.7300000  55.4299408 135.8639408   3.0410000
  54.4889408 136.2979408   4.1450000  31.2079408 144.3789408  28.9760000
  30.7519408 143.5889408  29.2650000  32.1189408 144.1049408  28.8680000
  55.6729408 140.8899408  23.2500000  55.9379408 141.6929408  22.8020000
  55.0279408 140.4909408  22.6670000  58.0719408 135.0429408  14.1250000
  58.3279408 134.1539408  13.8810000  58.7059408 135.6059408  13.6790000
  51.4969408 137.6769408   8.9910000  50.6869408 137.9649408   9.4120000
  51.2069408 137.1699408   8.2330000  51.3089408 141.2979408  10.9070000
  50.3719408 141.3809408  11.0840000  51.3559408 140.9219408  10.0280000
  49.9409408 145.9629408  28.3800000  49.0549408 146.3189408  28.3170000
  50.3819408 146.2749408  27.5900000  52.7679408 139.3119408  17.3790000
  52.3009408 140.0629408  17.0110000  53.4259408 139.6989408  17.9570000
  49.7129408 141.5399408   7.5910000  49.1179408 140.8719408   7.2500000
  50.5109408 141.0599408   7.8100000  53.7039408 137.7479408  10.5130000
  54.1529408 136.9339408  10.2860000  52.9529408 137.7799408   9.9200000
  57.4709408 145.8359408   6.5070000  57.7579408 144.9329408   6.6370000
  57.3959408 145.9299408   5.5570000  57.1539408 145.2229408  18.8610000
  57.2309408 144.5909408  18.1470000  57.9429408 145.7599408  18.7930000
  58.9979408 135.2499408  17.3840000  58.6679408 135.0439408  18.2580000
  58.5579408 134.6249408  16.8080000  47.0249408 142.7099408  17.6690000
  46.8809408 142.0149408  17.0260000  46.7759408 143.5139408  17.2140000
  55.5159408 122.1409408   2.2740000  54.6969408 122.6339408   2.2290000
  55.2789408 121.3189408   2.7030000  57.8379408 136.4779408   4.9610000
  57.1649408 136.4449408   4.2810000  58.2269408 137.3489408   4.8720000
  48.1619408 131.4479408  18.1310000  48.1129408 131.6889408  19.0560000
  49.0279408 131.7449408  17.8520000  41.7949408 124.1809408  15.4660000
  41.0579408 124.3869408  16.0420000  42.4969408 124.7619408  15.7580000
  54.6279408 149.7129408   3.2650000  53.6809408 149.5999408   3.3410000
  54.9819408 149.3039408   4.0550000  54.1549408 148.4689408   8.6710000
  54.9869408 147.9959408   8.6860000  53.5239408 147.8559408   9.0480000
  57.6299408 148.3429408   7.5860000  57.5669408 147.3909408   7.5050000
  57.5549408 148.5079408   8.5260000  56.7179408 143.2369408  17.1170000
  57.0469408 143.5299408  16.2670000  56.4409408 142.3329408  16.9690000
  58.6429408 143.4169408   2.1320000  59.5469408 143.7219408   2.2000000
  58.2299408 144.0239408   1.5180000  48.1019408 149.3339408  13.8490000
  48.8249408 149.9569408  13.9170000  48.5209408 148.5029408  13.6270000
  30.8829408 135.8929408  20.9960000  31.0199408 135.6469408  21.9110000
  30.0429408 135.4959408  20.7640000  59.7119408 147.0349408  18.1520000
  59.5509408 147.4989408  17.3300000  59.2639408 147.5589408  18.8150000
  37.1339408 143.6299408  17.5170000  36.9599408 144.4419408  17.0430000
  37.4829408 143.0339408  16.8540000  34.8129408 140.6049408  20.3340000
  34.8989408 141.5329408  20.5520000  34.8869408 140.1529408  21.1740000
  55.3029408 146.0099408  11.7730000  55.0519408 145.5969408  10.9470000
  54.6769408 146.7259408  11.8830000  45.4609408 143.4619408   3.0360000
  45.9439408 143.2799408   2.2300000  45.3659408 142.6069408   3.4560000
  43.5109408 147.9189408  15.3630000  44.4469408 147.8499408  15.5500000
  43.2639408 147.0499408  15.0470000  55.1669408 145.1589408   1.8110000
  54.2559408 144.8679408   1.8270000  55.3879408 145.2049408   0.8810000
  51.1539408 147.1659408   6.5480000  51.4189408 146.9389408   5.6570000
  51.5359408 148.0299408   6.7000000  47.0539408 146.8609408  28.2050000
  46.3929408 147.1089408  28.8510000  46.5519408 146.4939408  27.4770000
  46.0469408 124.5639408  15.7710000  46.0809408 124.5099408  16.7260000
  45.4529408 125.2939408  15.5940000  32.8799408 147.4629408  12.2670000
  32.0239408 147.0379408  12.2150000  33.2679408 147.3299408  11.4030000
  58.6919408 139.2009408   3.8620000  59.5599408 138.8229408   3.7170000
  58.1619408 138.8679408   3.1380000  57.3199408 138.8899408   1.5420000
  57.8129408 139.1749408   0.7720000  57.3469408 137.9339408   1.5040000
  30.1709408 145.8719408   3.6420000  30.6029408 145.3299408   2.9810000
  30.8439408 146.4929408   3.9200000  51.9069408 140.2649408   8.2860000
  51.7919408 139.3209408   8.3890000  52.4119408 140.3589408   7.4790000
  50.8209408 145.7819408  11.5460000  50.6039408 145.9449408  10.6280000
  50.7959408 146.6459408  11.9560000  57.3569408 121.1799408   6.2670000
  57.6309408 121.6629408   5.4870000  58.0139408 120.4909408   6.3660000
  48.4929408 140.8929408  11.3400000  48.2899408 140.2629408  10.6490000
  47.8709408 141.6069408  11.2050000  57.5929408 148.9229408  10.4380000
  57.4519408 149.3709408  11.2720000  58.5019408 148.6269408  10.4740000
  39.8979408 148.3239408  17.5680000  40.5479408 147.6229408  17.5210000
  39.0609408 147.8869408  17.4100000  30.6229408 145.0849408  19.8260000
  31.5509408 144.8679408  19.9130000  30.5909408 145.7159408  19.1080000
  42.2699408 136.4249408  28.7760000  42.9509408 137.0969408  28.8060000
  42.4539408 135.9319408  27.9760000  59.5049408 129.6089408   3.9390000
  59.2369408 129.4409408   3.0360000  60.3389408 129.1489408   4.0320000
  54.9399408 148.5519408  12.8940000  55.6679408 148.0659408  13.2810000
  55.3499408 149.3119408  12.4820000  30.9209408 149.9589408   9.9480000
  31.4189408 149.3979408   9.3520000  30.0779408 150.0829408   9.5120000
  30.1289408 120.2789408   6.1440000  30.1339408 120.2069408   5.1890000
  30.6739408 119.5509408   6.4420000  50.1059408 146.3139408   8.9570000
  50.3829408 146.3689408   8.0430000  49.8789408 147.2129408   9.1940000
  53.6379408 149.1839408  27.3740000  53.8629408 148.6559408  28.1400000
  53.7149408 150.0889408  27.6760000  47.8029408 121.4979408   2.0150000
  47.8179408 121.3079408   2.9530000  47.9959408 120.6579408   1.5970000
  51.2849408 141.4409408   3.2030000  52.1909408 141.6019408   3.4660000
  50.9289408 142.3109408   3.0260000  54.8339408 138.1349408  15.5300000
  55.1179408 137.2749408  15.8380000  54.2629408 138.4619408  16.2250000
  55.9399408 143.0769408  10.1740000  55.0409408 142.8989408  10.4490000
  55.8779408 143.8789408   9.6550000  37.8459408 124.6539408  28.8310000
  38.2209408 124.7389408  29.7070000  37.3629408 123.8279408  28.8550000
  30.5509408 143.0329408   8.3860000  30.1859408 143.4379408   7.6000000
  29.8569408 143.1109408   9.0410000  51.0919408 122.8469408  27.7180000
  51.6289408 122.2659408  28.2570000  51.7059408 123.5029408  27.3870000
  49.0939408 145.2559408  17.6310000  48.8449408 145.5209408  18.5160000
  48.5189408 144.5169408  17.4310000  54.6889408 146.4959408  23.9890000
  55.4609408 146.4079408  23.4300000  54.0209408 145.9579408  23.5630000
  49.7889408 147.3129408  23.2930000  50.5389408 147.1429408  22.7230000
  49.6029408 148.2449408  23.1720000  56.0789408 148.6559408   5.3270000
  56.5179408 148.9459408   6.1270000  56.5309408 147.8469408   5.0860000
  51.9989408 147.5469408   1.0180000  52.9239408 147.6119408   0.7810000
  51.7279408 146.6889408   0.6910000  47.6129408 140.7449408   3.2240000
  47.4149408 139.8939408   2.8320000  47.7729408 141.3209408   2.4770000
  58.7029408 143.2359408  20.3090000  59.5569408 143.6369408  20.1500000
  58.0819408 143.8059408  19.8540000  49.1839408 142.3919408  19.3730000
  48.8759408 142.0519408  20.2130000  48.3959408 142.4469408  18.8330000
  58.9259408 139.3549408  29.1130000  58.4939408 139.0299408  28.3230000
  59.7449408 138.8629408  29.1590000  52.4529408 142.8319408  24.3870000
  53.2899408 143.2969408  24.4070000  51.9209408 143.3219408  23.7600000
  59.3329408 140.1069408   9.6110000  60.1389408 140.5079408   9.2850000
  58.7129408 140.1949408   8.8870000  59.7389408 121.2499408  22.7270000
  59.9719408 120.5979408  22.0660000  58.7969408 121.1349408  22.8560000
  44.6139408 144.3099408  28.8680000  43.7559408 144.7329408  28.8890000
  45.0889408 144.7639408  28.1720000  31.4839408 140.5129408  26.1210000
  31.9909408 139.8839408  25.6070000  30.8779408 140.9039408  25.4910000
  56.4009408 130.1289408  29.6700000  56.3809408 130.6799408  30.4520000
  56.2529408 130.7369408  28.9450000  59.0999408 146.4319408  25.9860000
  58.5239408 146.4859408  26.7480000  58.5919408 145.9469408  25.3350000
  57.4289408 144.6289408  24.5640000  56.6139408 144.5409408  24.0710000
  57.3679408 143.9629408  25.2490000  56.4519408 138.2429408  23.9800000
  56.5979408 139.0739408  23.5290000  55.5169408 138.0689408  23.8690000
  56.6279408 125.1689408  30.1560000  55.8039408 124.7719408  29.8740000
  56.6229408 126.0389408  29.7570000  32.8429408 145.7119408  23.1490000
  33.7689408 145.4969408  23.0340000  32.8479408 146.5679408  23.5780000
  53.8769408 141.7659408  27.1800000  54.5629408 142.2469408  26.7180000
  53.0929408 142.3049408  27.0720000  58.0669408 135.0089408  20.1910000
  58.0739408 135.9439408  19.9830000  57.1889408 134.8459408  20.5340000
  56.0639408 137.5379408  28.8710000  56.7539408 136.9079408  28.6660000
  56.4249408 138.3839408  28.6060000  59.9059408 148.0329408  21.8660000
  59.3759408 148.3819408  22.5830000  60.0419408 147.1129408  22.0930000
  57.5559408 143.3009408  28.4550000  58.1949408 143.8009408  28.9620000
  58.0589408 142.9369408  27.7270000  57.8099408 137.9179408  26.6380000
  57.3599408 138.3039408  25.8870000  57.8709408 136.9859408  26.4280000
  50.8229408 140.4389408  24.5460000  51.4419408 141.1659408  24.6110000
  50.8099408 140.2179408  23.6140000  56.1169408 120.6769408  26.5390000
  55.8869408 120.0879408  25.8210000  56.9099408 120.2969408  26.9170000
  54.0979408 132.2559408  29.3850000  53.7049408 133.1289408  29.3770000
  53.3609408 131.6629408  29.5350000  33.7959408 122.6399408   1.5360000
  33.1589408 123.0979408   0.9870000  33.2689408 122.0539408   2.0780000
  59.0779408 142.0099408  26.4940000  59.7929408 141.5059408  26.8830000
  59.4689408 142.4279408  25.7270000  56.4579408 142.1029408  25.8250000
  57.2999408 141.6859408  26.0080000  56.1359408 141.6579408  25.0400000
  54.2699408 149.2149408  24.6630000  54.2869408 148.9489408  25.5820000
  54.4699408 148.4149408  24.1780000  49.3969408 142.8279408  25.2380000
  49.5079408 142.1059408  24.6190000  50.1119408 142.7199408  25.8640000
  50.7379408 123.9019408  20.2470000  50.8629408 123.9519408  19.3000000
  51.6089408 124.0529408  20.6130000  59.0199408 148.8129408  24.3330000
  59.8619408 149.1639408  24.6250000  58.8459408 148.0819408  24.9260000
  46.8359408 121.2099408  27.0900000  47.4759408 120.5949408  27.4500000
  47.1229408 122.0669408  27.4050000  56.1579408 146.4039408   3.9090000
  55.6669408 147.2129408   4.0520000  55.8099408 146.0549408   3.0890000
  47.0399408 148.4119408  24.8180000  47.5809408 148.5059408  25.6020000
  47.1749408 147.5059408  24.5410000  53.6199408 144.9529408  22.0760000
  52.8519408 144.5989408  21.6270000  54.1499408 145.3379408  21.3780000
  51.2529408 143.5169408  20.7880000  50.5179408 143.0819408  20.3570000
  50.8559408 143.9929408  21.5170000  33.1729408 149.6979408  23.8650000
  32.8949408 149.4999408  22.9710000  33.6089408 150.5479408  23.7990000
  54.4219408 129.4159408  20.1160000  55.2529408 129.6309408  20.5400000
  53.7539408 129.7569408  20.7110000  32.7039408 141.1609408   0.5350000
  31.8629408 141.6189408   0.5440000  32.8899408 141.0209408  -0.3940000
  48.5739408 146.5729408  19.9790000  49.3969408 147.0059408  20.2050000
  47.9349408 146.9379408  20.5900000  53.9579408 121.6669408  23.3620000
  53.0839408 121.9459408  23.6370000  54.0009408 120.7409408  23.6010000
  58.8059408 136.1259408  29.0390000  59.4149408 136.8549408  28.9240000
  59.3669408 135.3549408  29.1220000  53.5929408 140.4459408   6.1030000
  54.4549408 140.0469408   6.2220000  53.6239408 140.8299408   5.2270000
  51.0189408 141.9559408  17.3460000  50.6409408 142.0609408  18.2200000
  51.4569408 142.7889408  17.1720000  59.3579408 126.4659408  21.7420000
  58.9689408 126.1709408  20.9190000  59.0259408 125.8529408  22.3980000
  35.0389408 140.2599408  23.3180000  35.4329408 140.8059408  23.9980000
  34.2329408 139.9279408  23.7140000  54.5659408 147.9129408  29.5880000
  54.9279408 147.0679408  29.3220000  55.1819408 148.2429408  30.2420000
  52.3159408 120.6029408   0.0200000  52.8489408 120.3259408   0.7650000
  52.9519408 120.8169408  -0.6630000  32.0639408 122.4419408  19.6400000
  32.0359408 123.1009408  18.9460000  31.3919408 121.8059408  19.3950000
  46.0279408 149.2599408  18.5900000  45.0909408 149.1729408  18.4130000
  46.1359408 148.9249408  19.4800000  50.3859408 144.2079408  23.2040000
  50.0829408 145.1069408  23.3300000  49.8389408 143.6859408  23.7910000
  30.8689408 126.2169408   0.9050000  31.1979408 126.6709408   0.1290000
  31.6129408 126.1979408   1.5060000  34.5629408 145.8619408  25.9740000
  33.6279408 146.0279408  26.0910000  34.7009408 144.9909408  26.3480000
  40.0009408 146.2329408  21.9690000  40.8279408 145.7619408  22.0740000
  40.2609408 147.1449408  21.8330000  43.1139408 149.2469408  18.1040000
  43.4209408 148.6579408  17.4150000  42.3449408 149.6749408  17.7280000
  34.1209408 133.6749408  43.7610000  34.0209408 134.4239408  44.3480000
  34.6659408 133.0579408  44.2490000  49.4019408 137.0039408  33.4620000
  49.3069408 136.1259408  33.8320000  48.6369408 137.1089408  32.8970000
  51.2879408 125.2629408  59.9310000  50.5409408 124.9539408  60.4440000
  50.9199408 125.9259408  59.3470000  36.9639408 147.2739408  34.1330000
  36.2589408 146.7169408  34.4630000  36.9889408 148.0129408  34.7410000
  51.1249408 121.1489408  51.7350000  50.9649408 120.2999408  51.3230000
  51.6349408 121.6379408  51.0890000  36.7109408 138.7099408  51.4700000
  36.3839408 139.3649408  52.0880000  37.6529408 138.8729408  51.4250000
  41.8849408 131.9679408  42.0810000  41.2899408 131.2449408  42.2800000
  42.7569408 131.5759408  42.1090000  35.8789408 126.9689408  38.7010000
  35.4139408 126.1719408  38.4480000  35.9029408 127.4959408  37.9020000
  45.1049408 137.8279408  45.6050000  44.2939408 137.6459408  45.1300000
  45.7899408 137.7719408  44.9380000  30.6359408 134.0729408  38.5360000
  29.8129408 134.3929408  38.1640000  30.9089408 133.3719408  37.9450000
  48.8559408 138.6129408  39.2840000  48.4689408 138.1719408  40.0410000
  48.1489408 139.1559408  38.9360000  39.0639408 128.6819408  47.8260000
  38.4579408 128.2489408  48.4280000  39.3939408 127.9759408  47.2700000
  41.2259408 131.3479408  35.7040000  40.6419408 131.7979408  36.3140000
  41.6789408 130.6969408  36.2400000  47.4669408 135.2269408  47.9080000
  47.9479408 135.1439408  48.7320000  48.1319408 135.1079408  47.2300000
  52.0799408 129.5039408  36.3360000  51.9909408 129.7379408  35.4120000
  52.7389408 130.1109408  36.6740000  35.6149408 133.6859408  38.9500000
  35.7649408 133.7169408  39.8950000  34.7539408 134.0859408  38.8300000
  59.3079408 138.9599408  45.2020000  59.6479408 139.5329408  45.8900000
  59.8979408 139.0979408  44.4610000  32.5329408 127.1629408  58.8470000
  33.2739408 127.5749408  59.2930000  32.8629408 126.9599408  57.9720000
  42.9309408 145.5519408  44.1980000  43.8639408 145.3599408  44.1090000
  42.5239408 145.1209408  43.4470000  58.0369408 125.5629408  35.5490000
  57.0969408 125.6829408  35.4130000  58.2159408 124.6789408  35.2300000
  48.3629408 141.3589408  30.6810000  47.7089408 142.0489408  30.5670000
  48.2789408 140.8169408  29.8970000  40.6849408 135.9839408  36.6650000
  41.1339408 136.8249408  36.7490000  39.8769408 136.0929408  37.1670000
  48.4319408 124.8569408  55.0460000  48.1149408 124.5139408  55.8810000
  48.3719408 124.1159408  54.4430000  58.7999408 129.9389408  45.7730000
  57.8609408 129.9999408  45.5990000  58.8569408 129.5959408  46.6650000
  32.3889408 140.7699408  33.8460000  33.1819408 141.3059408  33.8470000
  32.6729408 139.9199408  34.1820000  47.9779408 134.4559408  40.6650000
  47.2519408 134.3639408  40.0480000  47.7039408 133.9559408  41.4340000
  39.6549408 144.0029408  60.1860000  39.0479408 144.5939408  59.7410000
  40.5229408 144.3469408  59.9750000  43.5299408 134.6779408  30.5350000
  42.9009408 133.9769408  30.7060000  43.0779408 135.2629408  29.9270000
  46.9329408 142.0279408  43.3670000  47.2779408 142.9039408  43.1980000
  47.6629408 141.4399408  43.1730000  34.4319408 148.7859408  56.2340000
  34.8979408 148.1089408  55.7430000  33.7839408 149.1269408  55.6170000
  41.7599408 143.1179408  38.5430000  41.6899408 143.8819408  37.9720000
  42.0759408 142.4179408  37.9710000  44.5309408 146.0489408  31.8910000
  45.1549408 146.0429408  31.1650000  44.9719408 145.5639408  32.5890000
  31.5889408 127.8679408  35.1380000  31.9129408 127.0799408  34.7030000
  32.3749408 128.2939408  35.4810000  34.3779408 121.6949408  46.6380000
  33.4469408 121.8319408  46.4640000  34.7679408 121.5709408  45.7730000
  46.9779408 134.3809408  58.3850000  47.8199408 133.9829408  58.6060000
  47.1409408 134.8459408  57.5640000  41.0189408 122.1809408  48.1460000
  40.7569408 123.1019408  48.1390000  41.6919408 122.1279408  48.8240000
  45.1549408 120.6799408  38.8720000  44.7649408 121.4279408  38.4200000
  45.0899408 119.9599408  38.2450000  45.4189408 134.0349408  43.0950000
  44.8099408 133.9809408  43.8320000  44.8679408 134.2559408  42.3440000
  36.8749408 146.9259408  39.7580000  37.0919408 147.8089408  40.0560000
  37.0169408 146.9499408  38.8120000  42.2769408 129.0759408  56.9600000
  41.8759408 129.8269408  56.5240000  42.9859408 129.4519408  57.4820000
  58.5349408 135.5709408  37.6430000  58.4489408 136.1489408  36.8850000
  58.1879408 136.0809408  38.3750000  38.3539408 126.3839408  33.5020000
  39.0179408 126.9059408  33.0520000  37.9879408 126.9769408  34.1590000
  54.3849408 129.4109408  47.3650000  54.7209408 128.5179408  47.2950000
  54.2909408 129.5589408  48.3060000  37.7939408 133.7699408  37.0920000
  37.1589408 133.5089408  37.7590000  38.3649408 133.0079408  36.9930000
  39.0859408 122.8069408  42.3010000  39.2659408 123.2629408  41.4790000
  39.7729408 123.1059408  42.8980000  45.8509408 133.9929408  39.0110000
  45.1649408 134.5659408  38.6690000  45.4019408 133.1709408  39.2080000
  37.6489408 137.3009408  42.5020000  37.1329408 137.8939408  43.0490000
  37.6139408 136.4609408  42.9600000  52.4549408 123.6049408  32.6640000
  51.6819408 123.5749408  32.1000000  52.7979408 124.4919408  32.5530000
  51.2289408 140.5009408  44.9470000  50.8759408 141.0379408  45.6570000
  51.9479408 141.0209408  44.5870000  37.2079408 128.2029408  59.8520000
  37.3599408 128.7419408  60.6280000  38.0649408 128.1409408  59.4310000
  40.4099408 145.8839408  56.7950000  40.4019408 146.2829408  55.9250000
  39.6159408 146.2129408  57.2170000  41.1919408 146.2969408  31.5580000
  41.2509408 147.2469408  31.6600000  41.6389408 145.9449408  32.3270000
  34.6869408 123.6109408  42.3470000  33.8339408 123.9499408  42.0730000
  35.2309408 124.3909408  42.4540000  43.1469408 132.3189408  57.0580000
  43.5739408 132.0469408  56.2450000  43.8619408 132.4039408  57.6880000
  41.3659408 140.8169408  42.9800000  41.3449408 141.5859408  42.4090000
  42.2869408 140.5579408  42.9990000  45.5709408 124.5019408  53.2080000
  46.1229408 125.1429408  52.7600000  45.2669408 123.9189408  52.5130000
  44.5329408 139.5259408  37.8070000  44.0209408 138.9609408  38.3850000
  43.9069408 140.1799408  37.4950000  34.9169408 134.0799408  36.0540000
  35.2429408 133.2809408  36.4690000  34.3959408 134.5079408  36.7330000
  41.9419408 124.9309408  48.4310000  42.8109408 125.3169408  48.3240000
  41.7659408 124.9919408  49.3700000  32.9999408 143.7209408  34.9930000
  32.5599408 143.1309408  35.6050000  33.7909408 143.2499408  34.7310000
  39.3909408 125.9979408  43.5600000  38.4679408 125.8209408  43.7410000
  39.5449408 125.6099408  42.6990000  36.4589408 139.0469408  44.2110000
  35.7969408 138.9559408  44.8960000  37.0899408 139.6709408  44.5690000
  42.7269408 124.7419408  43.0350000  43.5559408 124.2759408  42.9230000
  42.3699408 124.4009408  43.8560000  40.9189408 135.5149408  41.9010000
  40.0709408 135.1079408  41.7250000  40.7289408 136.4519408  41.9560000
  41.2779408 128.6519408  39.3500000  41.3409408 127.9429408  39.9910000
  40.6729408 129.2789408  39.7440000  37.3769408 148.8119408  31.6800000
  36.6809408 148.2869408  31.2850000  37.2869408 148.6599408  32.6210000
  45.6899408 138.6069408  34.5490000  45.8669408 138.6029408  33.6090000
  46.2479408 137.9129408  34.9010000  36.0069408 120.8799408  34.4630000
  36.8559408 120.4709408  34.2940000  36.1609408 121.8149408  34.3310000
  39.4119408 128.7209408  36.5640000  39.9009408 128.4549408  37.3430000
  40.0189408 129.2819408  36.0810000  40.9679408 138.3959408  45.9660000
  41.6029408 137.8829408  45.4660000  40.1389408 137.9329408  45.8490000
  39.0729408 130.0809408  39.9790000  39.3089408 130.3209408  40.8750000
  38.1399408 129.8699408  40.0250000  38.6629408 143.0849408  35.7270000
  39.1639408 142.7029408  36.4480000  39.3049408 143.2099408  35.0280000
  42.1909408 123.0269408  36.6490000  42.5829408 123.5069408  37.3790000
  42.8259408 122.3399408  36.4440000  32.7639408 130.3209408  45.9390000
  32.1979408 130.7929408  45.3280000  32.1579408 129.8679408  46.5260000
  33.7929408 125.9289408  48.5460000  34.5359408 125.3939408  48.2680000
  33.0419408 125.5539408  48.0850000  37.2649408 125.4869408  40.7700000
  36.6499408 126.0649408  40.3180000  37.6409408 124.9459408  40.0760000
  34.4899408 124.3149408  38.6110000  33.8189408 123.6769408  38.8510000
  34.7519408 124.0669408  37.7250000  48.2059408 131.1969408  41.0920000
  48.7899408 131.1579408  40.3350000  47.3289408 131.0939408  40.7250000
  42.6159408 122.7419408  32.6460000  42.2479408 123.1119408  31.8440000
  43.2749408 123.3789408  32.9240000  53.6789408 139.2509408  55.6230000
  52.9449408 138.9459408  56.1550000  54.0749408 139.9529408  56.1400000
  33.9959408 130.0319408  49.2360000  34.7059408 129.4889408  48.8920000
  34.1359408 130.8909408  48.8370000  43.6049408 129.6929408  33.1680000
  44.0819408 128.9459408  33.5280000  44.2209408 130.4239408  33.2310000
  40.6809408 131.2849408  30.4750000  40.9629408 131.9649408  29.8630000
  40.5939408 131.7389408  31.3140000  36.1979408 148.7859408  37.3920000
  35.6229408 149.3219408  37.9370000  36.9389408 149.3569408  37.1890000
  45.6389408 126.6119408  38.9870000  45.6199408 126.6119408  39.9440000
  46.5409408 126.8459408  38.7660000  46.1629408 140.3279408  39.8410000
  45.8969408 140.1039408  38.9500000  45.7949408 139.6309408  40.3840000
  48.8369408 139.6889408  43.6890000  49.6529408 139.8079408  44.1740000
  49.0429408 139.9709408  42.7980000  37.3569408 134.9479408  44.1060000
  36.7409408 134.6609408  44.7800000  37.7119408 134.1349408  43.7450000
  52.1589408 131.9809408  38.6940000  52.2029408 132.9319408  38.6020000
  52.8179408 131.6489408  38.0840000  31.5759408 121.8369408  42.3790000
  31.6699408 121.3979408  41.5340000  31.7809408 122.7539408  42.1980000
  39.7979408 133.5629408  50.7020000  39.9119408 132.6129408  50.6900000
  40.2249408 133.8659408  49.9000000  35.8779408 131.1339408  58.3530000
  36.6849408 131.2089408  58.8610000  35.1959408 130.9759408  59.0060000
  42.6309408 133.1459408  44.3340000  42.2629408 133.3379408  43.4710000
  42.9819408 132.2589408  44.2530000  40.1429408 128.5439408  32.9460000
  40.7999408 128.6049408  32.2530000  40.5939408 128.8529408  33.7320000
  34.7069408 135.4199408  53.1280000  34.5639408 135.8999408  52.3120000
  34.9709408 136.0909408  53.7570000  32.9149408 136.4549408  44.3630000
  33.5279408 137.1049408  44.7050000  32.2449408 136.3749408  45.0420000
  39.9729408 121.6209408  39.1660000  40.8859408 121.7839408  38.9290000
  40.0159408 121.2549408  40.0490000  42.5159408 129.3919408  37.0440000
  42.9239408 128.9559408  36.2950000  42.6179408 128.7729408  37.7670000
  50.6819408 134.5549408  40.8580000  50.4699408 134.9719408  41.6930000
  49.8309408 134.3559408  40.4670000  48.2509408 130.8129408  57.5970000
  47.9399408 130.8729408  56.6940000  49.1989408 130.9269408  57.5330000
  35.0659408 132.1979408  48.1450000  35.8319408 131.7159408  47.8330000
  34.6889408 132.5859408  47.3550000  34.4699408 126.9909408  51.0950000
  34.3759408 126.7169408  50.1820000  34.4599408 127.9469408  51.0610000
  46.7989408 128.8369408  51.9130000  46.1259408 128.2629408  51.5470000
  47.3839408 128.2479408  52.3890000  47.3339408 121.3149408  47.3720000
  47.1459408 122.1649408  47.7700000  46.5919408 120.7639408  47.6200000
  34.3569408 144.6489408  43.1330000  35.1819408 145.0809408  42.9100000
  33.8739408 145.2999408  43.6410000  36.0859408 134.8579408  41.4430000
  35.4669408 135.3769408  40.9300000  35.9959408 135.1919408  42.3360000
  38.5019408 124.1379408  38.6120000  38.8629408 124.4539408  37.7840000
  38.9809408 123.3279408  38.7890000  39.2219408 149.9579408  49.5540000
  39.1209408 149.3189408  48.8490000  39.7729408 150.6449408  49.1780000
  35.8979408 146.1729408  45.7840000  34.9769408 146.4009408  45.6590000
  36.2559408 146.1269408  44.8980000  34.1719408 128.0399408  36.5580000
  33.5999408 128.3309408  37.2680000  34.3229408 128.8259408  36.0330000
  50.9309408 128.1219408  47.8530000  50.4899408 128.4399408  48.6410000
  51.2959408 128.9089408  47.4480000  33.5469408 149.1949408  44.3880000
  33.4529408 148.7309408  43.5560000  34.0779408 149.9629408  44.1760000
  37.6459408 135.5889408  30.5610000  38.1379408 134.9059408  31.0160000
  38.1499408 136.3889408  30.7110000  39.7719408 122.8839408  35.6410000
  40.6209408 122.7349408  36.0590000  39.7999408 122.3549408  34.8440000
  39.0259408 136.3989408  45.6100000  38.7289408 136.0099408  46.4320000
  38.4029408 136.0809408  44.9560000  54.9449408 130.7089408  52.4340000
  54.4059408 130.1399408  52.9830000  54.3479408 131.3989408  52.1430000
  42.9919408 126.0789408  50.9050000  43.2669408 126.9929408  50.8340000
  43.4549408 125.7489408  51.6750000  43.9919408 130.0189408  59.0960000
  44.7189408 129.4589408  59.3680000  44.3539408 130.5539408  58.3890000
  45.0069408 127.1169408  58.0480000  45.2319408 127.0419408  58.9750000
  44.1499408 126.6969408  57.9740000  49.7759408 137.0209408  36.7930000
  49.6259408 137.7959408  36.2530000  49.1299408 137.0889408  37.4960000
  54.9269408 135.3199408  39.5870000  55.3159408 134.5869408  40.0650000
  55.3279408 135.2809408  38.7190000  35.7419408 131.5499408  42.2860000
  35.5099408 131.7689408  43.1890000  36.5849408 131.9799408  42.1450000
  59.0709408 122.3679408  43.5800000  59.1899408 122.7229408  44.4610000
  59.9599408 122.2269408  43.2550000  45.3469408 127.8619408  43.5700000
  45.5059408 127.1419408  42.9600000  46.2199408 128.1279408  43.8590000
  43.9419408 147.7469408  41.2050000  43.6119408 147.6369408  42.0970000
  43.2129408 148.1429408  40.7270000  31.1999408 137.8119408  59.4490000
  31.9049408 138.0979408  60.0290000  31.6469408 137.3699408  58.7280000
  32.4759408 133.4329408  41.5170000  32.9669408 133.3179408  42.3310000
  32.3929408 134.3819408  41.4200000  34.0809408 130.9719408  40.1910000
  33.3579408 131.5829408  40.3280000  34.6869408 131.1519408  40.9110000
  32.4699408 122.2689408  39.4860000  31.9209408 123.0069408  39.2190000
  31.8819408 121.5139408  39.4670000  33.0199408 136.0899408  41.5960000
  32.9749408 136.1599408  42.5500000  33.1089408 136.9939408  41.2930000
  42.5739408 134.1909408  46.7410000  42.6879408 133.7449408  45.9010000
  43.3929408 134.6689408  46.8720000  45.7109408 132.0629408  58.0250000
  46.5479408 131.6029408  58.0980000  45.9129408 132.9669408  58.2670000
  39.4949408 135.9309408  33.8740000  39.7659408 135.7989408  34.7830000
  39.9059408 136.7569408  33.6190000  38.0449408 138.2839408  47.2700000
  37.8129408 137.5769408  47.8720000  38.2419408 137.8409408  46.4450000
  38.0199408 121.0509408  44.0630000  38.1869408 121.8039408  43.4960000
  38.5849408 121.1939408  44.8240000  42.3299408 143.4389408  34.0320000
  41.5709408 142.9229408  33.7610000  43.0749408 143.0059408  33.6160000
  33.8559408 148.2669408  36.1100000  33.5329408 149.1219408  35.8250000
  34.7399408 148.4389408  36.4320000  32.1229408 142.1309408  47.8600000
  32.8419408 141.8089408  47.3180000  32.3069408 143.0629408  47.9750000
  48.9909408 128.3469408  35.9690000  49.9089408 128.3779408  36.2400000
  48.8449408 127.4349408  35.7200000  35.8029408 136.0779408  34.3120000
  36.5949408 135.6419408  33.9980000  35.6179408 135.6609408  35.1540000
  45.6349408 131.6509408  33.7230000  46.4549408 131.1739408  33.8460000
  45.4639408 132.0589408  34.5730000  43.6209408 135.0579408  41.2560000
  42.8359408 135.3699408  41.7060000  43.5009408 135.3309408  40.3470000
  36.7349408 130.4089408  46.9120000  37.6709408 130.2119408  46.8740000
  36.3309408 129.5979408  47.2210000  39.1019408 139.7299408  52.1000000
  39.8669408 139.3959408  51.6300000  39.3469408 140.6199408  52.3550000
  38.8879408 140.4159408  31.5990000  38.2829408 139.7779408  31.9770000
  38.7719408 141.2019408  32.1330000  43.4439408 120.5639408  35.1250000
  44.2609408 120.5429408  35.6220000  43.7179408 120.5099408  34.2090000
  38.1309408 137.3219408  39.6840000  38.1119408 138.2399408  39.4110000
  37.9969408 137.3509408  40.6310000  41.8609408 128.8709408  30.8180000
  41.4729408 129.7019408  30.5460000  42.8049408 129.0259408  30.7920000
  44.0549408 140.7059408  49.8650000  43.1819408 140.5199408  50.2090000
  44.1139408 140.1809408  49.0660000  38.7819408 134.8269408  40.5120000
  37.8989408 134.6719408  40.8490000  38.7299408 135.6859408  40.0920000
  55.7759408 135.5769408  45.5950000  56.5949408 135.4519408  45.1160000
  55.8309408 134.9639408  46.3280000  44.7319408 125.0299408  36.7360000
  45.2879408 124.2539408  36.6670000  45.2679408 125.6689408  37.2060000
  44.7409408 138.3739408  58.8420000  45.0239408 139.2489408  58.5730000
  45.2609408 138.1829408  59.6220000  44.8019408 135.4929408  46.8610000
  44.9129408 136.3009408  46.3600000  45.6729408 135.3059408  47.2110000
  37.7279408 133.2519408  56.7680000  37.4999408 132.7349408  57.5410000
  38.4259408 133.8349408  57.0650000  48.8059408 138.6449408  59.5420000
  49.1739408 137.7629408  59.4910000  49.4979408 139.2139408  59.2050000
  57.4529408 132.4809408  42.6510000  56.9679408 131.6609408  42.7380000
  58.3159408 132.2169408  42.3320000  49.8039408 130.9529408  38.8190000
  50.7069408 131.2619408  38.7410000  49.2889408 131.5889408  38.3220000
  43.6759408 132.0399408  38.3110000  42.9579408 132.4469408  38.7970000
  43.3909408 131.1369408  38.1740000  34.4319408 119.9699408  39.1520000
  34.9539408 120.3289408  39.8690000  33.7079408 120.5879408  39.0490000
  33.1979408 135.2869408  37.9950000  32.5999408 135.4139408  37.2590000
  32.7259408 134.7069408  38.5910000  43.4919408 130.2479408  45.4210000
  44.1179408 130.9619408  45.5410000  44.0109408 129.5349408  45.0460000
  58.8019408 126.7519408  45.1170000  58.5949408 126.3399408  44.2790000
  57.9779408 127.1509408  45.3980000  36.3509408 132.5299408  50.8020000
  35.7639408 132.6359408  50.0530000  36.8079408 133.3679408  50.8690000
  32.1939408 122.4329408  45.0200000  31.9859408 122.0149408  44.1840000
  32.7589408 123.1699408  44.7850000  50.3539408 121.1919408  44.3940000
  51.2449408 121.0649408  44.0680000  50.3279408 122.1089408  44.6690000
  42.9529408 138.1909408  34.7110000  42.8259408 138.4779408  35.6150000
  43.8859408 138.3269408  34.5450000  41.2079408 133.2309408  39.6310000
  41.4929408 133.1859408  40.5430000  40.4689408 133.8389408  39.6400000
  35.2889408 136.5969408  31.2440000  36.1979408 136.4009408  31.4730000
  35.0949408 136.0109408  30.5130000  35.9609408 121.2959408  40.8390000
  36.7089408 121.8909408  40.8830000  35.2019408 121.8499408  41.0230000
  44.0369408 129.3019408  40.0320000  43.0859408 129.2279408  39.9500000
  44.3769408 128.5189408  39.5980000  43.8409408 135.9929408  49.9150000
  43.3829408 135.6059408  49.1690000  44.1529408 136.8389408  49.5910000
  47.9259408 133.8949408  44.1400000  46.9729408 133.9149408  44.2200000
  48.2449408 134.1439408  45.0080000  47.9639408 124.7779408  30.3340000
  47.0519408 125.0459408  30.4500000  48.1979408 124.3589408  31.1630000
  36.0819408 131.7559408  33.1260000  35.2619408 132.2489408  33.0890000
  36.7199408 132.3779408  33.4750000  50.7849408 131.9599408  47.6010000
  51.3309408 131.2469408  47.2700000  50.9109408 132.6709408  46.9720000
  46.0959408 130.7469408  39.5820000  45.3069408 130.3579408  39.9590000
  46.3329408 130.1619408  38.8630000  41.8799408 131.9409408  33.1400000
  41.5959408 131.9629408  34.0530000  42.2839408 131.0799408  33.0340000
  40.6029408 138.1769408  42.3180000  39.6709408 138.0139408  42.4610000
  40.6839408 139.1309408  42.3230000  46.8019408 140.5669408  45.9690000
  47.5409408 139.9729408  45.8380000  46.7199408 141.0359408  45.1380000
  36.3819408 123.8779408  36.2780000  36.8239408 124.1609408  37.0780000
  36.7769408 124.4079408  35.5850000  47.8219408 130.6709408  54.7140000
  47.0509408 130.2079408  54.3860000  48.5589408 130.2549408  54.2680000
  50.9929408 136.8169408  31.4860000  51.3499408 137.6909408  31.3270000
  50.4049408 136.9299408  32.2320000  57.1529408 133.0869408  46.5300000
  57.5009408 132.5009408  47.2020000  56.4709408 132.5749408  46.0950000
  58.4819408 130.9349408  39.6410000  58.8959408 131.1749408  40.4700000
  58.9019408 131.4979408  38.9910000  44.8989408 146.5689408  38.8670000
  44.8359408 146.8249408  39.7880000  44.8469408 145.6129408  38.8800000
  36.4319408 129.2409408  39.6680000  35.6539408 129.7959408  39.6110000
  36.1929408 128.4429408  39.1960000  47.9739408 130.1959408  34.3400000
  48.5639408 130.9399408  34.4650000  48.2259408 129.5729408  35.0210000
  44.5639408 131.3319408  42.5050000  45.3129408 131.9219408  42.4160000
  44.8419408 130.5249408  42.0710000  35.8949408 139.3489408  40.4970000
  35.2319408 139.5939408  41.1420000  35.4229408 138.8129408  39.8600000
  40.5329408 124.8369408  41.0850000  40.4469408 125.5079408  40.4070000
  41.3799408 125.0149408  41.4930000  38.3729408 143.4639408  43.1860000
  39.1639408 143.9339408  42.9220000  37.6539408 143.9979408  42.8490000
  38.0019408 133.8009408  34.2870000  38.6839408 134.4149408  34.0160000
  37.9259408 133.9279408  35.2330000  38.5919408 140.0079408  41.6570000
  37.6919408 139.6829408  41.6220000  38.5009408 140.9549408  41.7650000
  38.5059408 149.5499408  34.7200000  39.2599408 149.8159408  34.1930000
  38.6619408 149.9459408  35.5770000  34.0379408 147.2559408  39.9530000
  34.9729408 147.0479408  39.9550000  33.9999408 148.1869408  39.7350000
  47.8569408 125.7969408  36.3200000  48.7739408 125.6119408  36.1180000
  47.3679408 125.4069408  35.5960000  54.8209408 127.4299408  38.6100000
  54.9309408 126.7309408  37.9650000  55.4989408 128.0679408  38.3900000
  39.6499408 131.8419408  37.8760000  40.4039408 132.2779408  38.2730000
  39.2779408 131.3139408  38.5820000  47.8409408 131.3329408  51.0730000
  47.5779408 130.4969408  51.4570000  47.0239408 131.8229408  50.9800000
  46.4069408 123.6289408  49.0480000  47.1099408 124.2789408  49.0450000
  46.1969408 123.5069408  49.9740000  41.6449408 128.1269408  53.6070000
  41.9199408 127.4939408  54.2710000  41.9309408 128.9729408  53.9510000
  48.3389408 128.6359408  47.0160000  48.1949408 129.4509408  47.4970000
  49.2549408 128.4159408  47.1850000  37.8239408 129.7049408  31.9020000
  38.6989408 129.3949408  32.1340000  37.3699408 129.7939408  32.7400000
  37.4669408 129.5539408  56.4890000  37.0789408 130.1509408  57.1290000
  37.8689408 130.1279408  55.8380000  43.4879408 128.3599408  47.7820000
  42.5719408 128.4729408  48.0380000  43.7179408 129.1799408  47.3450000
  57.1329408 133.4899408  36.5760000  56.2129408 133.7239408  36.4540000
  57.5309408 134.2739408  36.9540000  45.6989408 133.6459408  51.5090000
  44.9289408 134.2119408  51.4530000  45.7449408 133.3939408  52.4310000
  35.3759408 125.8509408  34.5400000  35.9379408 126.5929408  34.3170000
  35.1269408 126.0039408  35.4520000  51.4999408 140.8909408  51.6630000
  51.5299408 141.8449408  51.5890000  51.2169408 140.5929408  50.7990000
  46.1989408 132.7839408  54.3270000  46.9519408 132.3809408  54.7590000
  45.5079408 132.1229408  54.3830000  50.3079408 132.6819408  51.5200000
  49.5659408 132.7069408  52.1230000  50.0339408 133.2229408  50.7790000
  53.5869408 131.2759408  33.3410000  52.6949408 131.6219408  33.3230000
  54.1119408 131.9439408  32.9000000  37.8799408 146.0279408  53.7110000
  38.5289408 146.2299408  53.0370000  37.0729408 145.8609408  53.2240000
  48.4169408 134.7709408  50.7260000  48.8399408 135.1919408  51.4750000
  47.5249408 134.5919408  51.0240000  44.9759408 135.1649408  53.9550000
  45.6309408 135.7189408  53.5300000  45.4869408 134.4979408  54.4130000
  50.1269408 137.4139408  47.2570000  50.8569408 138.0169408  47.1180000
  50.2649408 137.0689408  48.1390000  47.7229408 129.0149408  44.5310000
  48.2079408 129.8399408  44.5330000  47.7629408 128.7109408  45.4380000
  47.0589408 124.2909408  33.6940000  47.3229408 123.4279408  34.0130000
  46.3329408 124.1129408  33.0950000  42.1429408 133.0499408  53.4810000
  42.7959408 133.1569408  52.7890000  41.8279408 133.9369408  53.6530000
  39.2999408 124.7489408  46.6790000  38.4779408 124.7659408  46.1890000
  39.0309408 124.7099408  47.5970000  40.2849408 129.8869408  42.5980000
  40.8409408 129.1149408  42.4900000  40.1829408 129.9779408  43.5460000
  41.5199408 130.6549408  54.6330000  41.7749408 131.4879408  54.2350000
  40.7539408 130.3749408  54.1320000  58.8309408 127.2719408  32.2880000
  58.8699408 126.9779408  33.1980000  59.5399408 126.7969408  31.8530000
  42.8319408 126.0959408  55.8560000  42.2219408 126.7999408  56.0740000
  42.2899408 125.4319408  55.4300000  52.0739408 129.3869408  59.4840000
  52.9599408 129.0269408  59.4310000  51.4999408 128.6319408  59.3590000
  47.8369408 125.8009408  48.3520000  48.7399408 125.6199408  48.0890000
  47.7859408 126.7559408  48.3950000  45.8959408 139.4069408  54.8660000
  45.5879408 138.8379408  55.5710000  46.8499408 139.3899408  54.9430000
  42.3099408 137.8379408  48.4750000  41.5999408 137.7869408  47.8350000
  42.9599408 138.4099408  48.0670000  51.5769408 130.0929408  43.5580000
  50.8019408 130.5149408  43.9290000  51.6999408 130.5189408  42.7100000
  33.0429408 132.8729408  55.6090000  33.5349408 132.7249408  54.8020000
  32.7319408 132.0039408  55.8640000  44.6799408 149.2389408  56.7010000
  45.3729408 149.7719408  56.3100000  44.3379408 149.7769408  57.4150000
  35.6739408 143.6199408  30.0820000  36.0949408 143.8689408  30.9050000
  36.3839408 143.2649408  29.5480000  33.0279408 138.2679408  31.4330000
  33.1569408 139.2159408  31.4620000  33.8729408 137.9189408  31.1520000
  35.6639408 128.1749408  48.2520000  36.2629408 127.8789408  48.9380000
  35.1889408 127.3859408  47.9920000  35.9109408 126.2639408  53.1760000
  35.8639408 125.3079408  53.1610000  35.2579408 126.5469408  52.5370000
  33.5549408 132.7819408  33.2750000  32.7219408 132.4139408  33.5720000
  33.4619408 133.7249408  33.4110000  42.0799408 122.2879408  55.6550000
  41.8949408 122.3419408  56.5920000  41.6749408 123.0719408  55.2840000
  33.4729408 129.6029408  57.1470000  33.7089408 128.7169408  56.8730000
  34.0979408 129.8149408  57.8400000  50.1159408 123.8369408  45.0270000
  50.6079408 124.5009408  44.5440000  49.2639408 123.8059408  44.5920000
  39.1499408 149.6889408  52.5040000  39.9349408 150.2339408  52.5540000
  39.1679408 149.3219408  51.6200000  40.2899408 136.9219408  56.2360000
  40.6129408 136.3839408  55.5120000  40.5349408 137.8159408  55.9980000
  35.6959408 126.5609408  57.9650000  36.2729408 126.7839408  57.2350000
  36.2299408 126.7069408  58.7460000  39.0229408 130.0999408  53.4030000
  38.3649408 130.6929408  53.7660000  38.5369408 129.3039408  53.1870000
  32.6359408 129.1879408  42.6550000  32.1249408 129.8089408  43.1730000
  31.9839408 128.6069408  42.2650000  40.1199408 121.7629408  33.4120000
  39.5699408 121.8339408  32.6310000  40.9739408 122.0939408  33.1340000
  45.5569408 145.5499408  56.2860000  44.8219408 144.9969408  56.0220000
  46.0899408 145.6339408  55.4950000  37.1549408 127.1399408  55.5410000
  36.6739408 127.0259408  54.7220000  37.2739408 128.0859408  55.6200000
  44.3109408 130.8199408  55.0000000  43.4729408 130.6859408  54.5580000
  44.6099408 129.9379408  55.2200000  54.7679408 126.0699408  47.1460000
  53.8289408 126.0299408  46.9640000  55.1819408 125.7409408  46.3480000
  35.1569408 131.4689408  45.1180000  34.3929408 131.0489408  45.5120000
  35.9069408 131.0229408  45.5130000  46.3049408 137.8459408  48.6500000
  46.4699408 138.5339408  48.0040000  46.6669408 137.0539408  48.2540000
  41.4229408 121.4139408  52.3640000  41.7979408 121.2949408  53.2370000
  42.1729408 121.6199408  51.8060000  34.3739408 122.0349408  52.5920000
  35.0449408 122.5869408  52.9950000  33.7539408 122.6539408  52.2080000
  37.8019408 136.5439408  37.0640000  37.6149408 135.6139408  37.1890000
  37.8329408 136.9049408  37.9500000  39.5459408 134.8449408  57.9910000
  39.9689408 135.6099408  57.6000000  39.0599408 135.1949408  58.7380000
  31.7749408 120.6259408  58.9360000  32.5749408 121.0719408  59.2140000
  31.1079408 121.3129408  58.9280000  42.7309408 132.2139408  48.9580000
  42.2289408 131.4239408  48.7610000  42.6519408 132.7509408  48.1690000
  33.0389408 147.9559408  58.5700000  33.2659408 147.7619408  57.6600000
  32.9049408 148.9029408  58.5870000  38.8229408 139.2789408  58.8730000
  39.0599408 138.7649408  59.6450000  38.2279408 139.9509408  59.2050000
  40.8119408 124.5099408  54.7060000  39.9129408 124.5729408  55.0290000
  40.7219408 124.4639408  53.7540000  38.1589408 131.4079408  59.5170000
  39.1069408 131.5379408  59.5250000  37.9899408 130.8219408  60.2550000
  37.4109408 128.2469408  52.5390000  37.0039408 127.3889408  52.6570000
  36.8979408 128.6629408  51.8460000  35.9589408 122.4859408  59.6520000
  35.4029408 122.4139408  60.4270000  35.4749408 122.0279408  58.9650000
  58.9339408 119.9049408  57.3680000  59.3039408 120.6489408  57.8430000
  59.4589408 119.8439408  56.5700000  48.8269408 123.5309408  52.3500000
  48.8589408 122.6169408  52.6340000  49.3369408 123.5479408  51.5400000
  43.0339408 134.4019408  33.2410000  43.4299408 134.6769408  32.4150000
  42.6019408 133.5729408  33.0360000  44.6579408 121.6439408  54.3280000
  45.2989408 121.5509408  55.0330000  43.8909408 122.0299408  54.7510000
  39.2199408 130.8319408  50.8010000  38.2959408 130.9889408  50.6070000
  39.2279408 130.5439408  51.7140000  38.1889408 137.1529408  53.5900000
  39.0689408 137.0679408  53.9560000  37.9749408 138.0809408  53.6910000
  37.2109408 128.0059408  35.3860000  36.6419408 128.7579408  35.5510000
  37.9689408 128.1489408  35.9520000  60.1159408 128.1649408  41.4220000
  60.1929408 127.2509408  41.1470000  59.2939408 128.4639408  41.0340000
  51.0649408 129.6399408  32.0140000  51.5329408 129.0169408  32.5690000
  51.5449408 129.6309408  31.1850000  34.8949408 138.8529408  36.4910000
  35.2919408 139.6979408  36.7040000  35.4089408 138.5259408  35.7530000
  30.8779408 149.1329408  31.2170000  31.1779408 149.6449408  30.4660000
  31.0379408 148.2229408  30.9670000  36.9089408 124.5699408  45.4710000
  36.4269408 125.1219408  44.8560000  36.2819408 124.3849408  46.1700000
  45.2509408 128.2789408  55.3330000  44.5369408 127.6459408  55.4040000
  45.7219408 128.2039408  56.1630000  46.1519408 136.8349408  36.9130000
  45.4469408 136.5409408  36.3350000  45.7099408 137.0769408  37.7270000
  31.6169408 129.6609408  55.2060000  32.3259408 129.5369408  55.8370000
  32.0529408 129.9679408  54.4120000  45.4429408 120.1609408  43.2290000
  46.1079408 119.5109408  43.4580000  45.5879408 120.8799408  43.8430000
  54.0269408 139.3799408  51.4100000  54.2849408 138.4959408  51.6720000
  53.1719408 139.5119408  51.8210000  44.3959408 138.1949408  40.7400000
  44.3709408 138.1429408  41.6950000  44.2869408 137.2889408  40.4480000
  35.1149408 124.0059408  56.8730000  34.1869408 124.1409408  56.6820000
  35.3489408 124.7299408  57.4530000  34.5679408 132.7609408  53.3450000
  34.5269408 133.7069408  53.4870000  34.8839408 132.6679408  52.4460000
  51.5419408 122.2789408  54.3060000  51.1949408 122.1159408  53.4290000
  51.4429408 121.4439408  54.7630000  44.6329408 143.1429408  40.1660000
  44.8209408 143.6079408  39.3500000  44.7559408 142.2189408  39.9490000
  45.3159408 132.0549408  46.3340000  44.9349408 132.8129408  46.7780000
  46.1729408 131.9419408  46.7450000  52.2929408 137.8109408  53.8080000
  52.1829408 137.0259408  54.3450000  52.7159408 138.4419408  54.3890000
  39.7159408 137.2639408  30.6440000  40.4809408 136.8889408  30.2080000
  40.0779408 137.7609408  31.3780000  39.6429408 147.8269408  54.9720000
  39.4569408 147.5769408  54.0670000  40.3899408 148.4219408  54.9080000
  37.2109408 131.8149408  54.3940000  36.3699408 132.1359408  54.0660000
  37.5599408 132.5409408  54.9100000  30.1669408 128.8079408  50.3710000
  29.8829408 128.0049408  50.8070000  29.9809408 129.5029408  51.0020000
  41.3649408 129.9299408  48.7550000  40.7509408 129.2719408  48.4300000
  41.2129408 129.9549408  49.7000000  44.3869408 140.9349408  31.0510000
  43.5169408 141.2199408  30.7720000  44.8489408 140.7409408  30.2360000
  40.7769408 129.9669408  45.3550000  41.7099408 130.1599408  45.2610000
  40.7469408 129.1889408  45.9110000  33.5569408 127.1909408  56.0440000
  34.3569408 126.6719408  56.1280000  33.4109408 127.2549408  55.1000000
  49.8279408 135.7489408  43.0870000  50.5869408 135.7009408  43.6680000
  49.2939408 134.9909408  43.3260000  30.9909408 134.1799408  59.6390000
  31.5389408 134.9439408  59.4570000  30.9489408 134.1369408  60.5940000
  41.3459408 133.1939408  58.8840000  40.7059408 133.7409408  58.4290000
  41.9039408 132.8469408  58.1880000  58.4329408 121.3169408  47.7720000
  58.3759408 120.3929408  48.0160000  58.3789408 121.7879408  48.6040000
  46.9629408 136.6139408  52.6300000  46.8069408 137.5369408  52.8310000
  47.8629408 136.5879408  52.3060000  56.9299408 131.9079408  31.8610000
  56.9209408 132.4829408  32.6270000  57.6339408 131.2839408  32.0360000
  45.8339408 123.3109408  31.4930000  46.3929408 122.5349408  31.4550000
  45.4889408 123.4019408  30.6050000  30.8749408 123.4179408  53.9600000
  30.5559408 122.5409408  53.7490000  31.6379408 123.5389408  53.3940000
  43.8929408 139.7199408  47.2500000  43.8199408 140.5249408  46.7370000
  44.7049408 139.3139408  46.9450000  40.5189408 127.1779408  45.9270000
  40.5439408 126.3239408  46.3590000  40.1409408 126.9999408  45.0660000
  45.9109408 147.6449408  50.9300000  45.4609408 146.9469408  50.4540000
  45.2979408 147.8989408  51.6190000  45.5579408 124.1889408  56.1150000
  44.8629408 124.8469408  56.1260000  45.7909408 124.1009408  55.1910000
  39.3779408 128.0839408  58.2570000  38.8019408 128.1769408  57.4980000
  40.1869408 128.5259408  58.0000000  37.9469408 127.0969408  49.7360000
  37.9239408 126.1409408  49.7090000  38.7869408 127.3059408  50.1460000
  46.8989408 149.9439408  35.6780000  46.7499408 149.2089408  36.2740000
  46.6159408 149.6199408  34.8230000  39.8299408 147.2289408  35.4010000
  38.9329408 147.4469408  35.1470000  40.3679408 147.5429408  34.6740000
  48.4289408 149.3959408  58.3290000  47.9429408 148.5779408  58.2260000
  48.7299408 149.3839408  59.2380000  31.1219408 126.0539408  39.6410000
  30.6489408 126.3209408  38.8530000  31.9209408 126.5809408  39.6320000
  41.1519408 142.9069408  50.7830000  41.1849408 141.9589408  50.9060000
  40.5209408 143.0349408  50.0740000  41.0869408 145.7069408  37.3250000
  40.8939408 146.1889408  38.1280000  40.7599408 146.2699408  36.6230000
  32.6749408 138.7829408  40.9760000  33.1839408 139.3299408  41.5740000
  33.0549408 138.9529408  40.1140000  43.9669408 135.5319408  35.7910000
  44.1179408 134.5939408  35.6770000  43.3829408 135.7699408  35.0710000
  32.1679408 124.6769408  42.0900000  31.6919408 125.0179408  41.3330000
  31.8439408 125.1909408  42.8290000  39.7219408 148.0699408  38.6160000
  39.4219408 148.0619408  37.7080000  39.1469408 148.6979408  39.0530000
  41.7279408 140.3879408  51.2710000  41.6209408 139.5149408  50.8940000
  42.3419408 140.2629408  51.9960000  58.0529408 145.8899408  42.2050000
  58.2489408 146.7309408  42.6180000  57.0989408 145.8779408  42.1250000
  43.8599408 126.7389408  32.4700000  43.0679408 127.2019408  32.1940000
  43.5509408 126.0939408  33.1060000  34.9999408 149.5199408  48.2440000
  35.1339408 149.6689408  49.1800000  34.6149408 150.3359408  47.9240000
  40.5059408 139.8669408  36.1100000  39.8559408 139.5139408  35.5030000
  39.9949408 140.3779408  36.7380000  43.0909408 125.1259408  34.6640000
  43.6829408 125.1169408  35.4160000  42.3979408 124.5079408  34.8970000
  33.3269408 144.6049408  49.3680000  34.2059408 144.2289408  49.3230000
  33.4169408 145.4729408  48.9750000  30.0379408 141.4779408  34.6990000
  30.9309408 141.1549408  34.5830000  29.4899408 140.8369408  34.2450000
  45.7609408 145.8819408  34.7460000  45.6409408 145.0999408  34.2060000
  44.9199408 145.9989408  35.1890000  44.2179408 140.3289408  43.1910000
  44.4609408 141.2159408  42.9250000  45.0449408 139.9189408  43.4450000
  47.6079408 141.4719408  51.4500000  47.1129408 142.1989408  51.8280000
  47.2049408 140.6879408  51.8230000  42.8429408 144.9729408  51.9030000
  42.4879408 144.2539408  51.3800000  43.3269408 145.5089408  51.2750000
  34.6779408 142.4899408  46.5850000  35.2769408 143.2359408  46.6160000
  35.2109408 141.7439408  46.8610000  35.7979408 141.3969408  36.7650000
  36.4539408 141.7799408  37.3470000  34.9819408 141.4349408  37.2640000
  60.0089408 141.9419408  59.8560000  59.3139408 142.0199408  60.5100000
  59.9439408 141.0409408  59.5420000  47.4849408 147.6719408  37.7400000
  46.6389408 147.2889408  37.9700000  47.8719408 147.0489408  37.1250000
  32.3099408 138.7869408  35.5240000  31.6629408 138.6259408  36.2120000
  33.1549408 138.6519408  35.9530000  54.3189408 144.7159408  44.1060000
  54.8969408 143.9829408  43.8980000  54.5489408 145.3919408  43.4680000
  36.4959408 138.9039408  32.3800000  35.9039408 139.5189408  31.9470000
  35.9969408 138.0889408  32.4350000  35.8519408 147.3879408  59.9390000
  35.2559408 147.5509408  59.2070000  35.3619408 146.8089408  60.5230000
  46.4369408 139.0669408  51.2430000  46.5039408 138.3559408  50.6060000
  45.6939408 139.5899408  50.9420000  37.2649408 143.0889408  33.3920000
  37.5729408 143.8519408  32.9040000  37.6459408 143.1919408  34.2640000
  40.3759408 143.4779408  47.1180000  39.6279408 143.2069408  47.6500000
  40.5139408 142.7509408  46.5100000  45.4449408 145.1009408  44.0140000
  46.2459408 145.2109408  43.5020000  45.0809408 144.2679408  43.7140000
  39.1669408 125.4379408  35.7480000  38.8509408 125.6709408  34.8750000
  39.4189408 124.5179408  35.6750000  34.2729408 140.1469408  42.5690000
  33.8439408 140.9559408  42.8460000  35.0339408 140.0699408  43.1450000
  33.2469408 135.4839408  33.2100000  33.6359408 136.1419408  32.6340000
  33.7999408 135.4919408  33.9910000  34.1789408 137.7809408  38.9290000
  34.2309408 138.1619408  38.0530000  33.5919408 137.0319408  38.8310000
  41.1639408 149.3629408  44.0990000  41.9599408 149.0219408  44.5070000
  40.8289408 150.0059408  44.7250000  41.2709408 149.4239408  30.7540000
  41.1439408 149.1009408  29.8620000  40.7259408 150.2099408  30.8040000
  40.1639408 134.3359408  47.9330000  39.7059408 133.4989408  47.8530000
  40.9369408 134.2409408  47.3770000  36.7049408 144.8669408  37.0240000
  37.3139408 144.3839408  36.4660000  36.0519408 145.2189408  36.4190000
  30.7809408 137.7779408  33.0700000  31.3749408 137.8329408  33.8190000
  31.3059408 138.0689408  32.3250000  36.9129408 146.0559408  43.0170000
  36.7609408 146.9919408  43.1450000  37.8609408 145.9539408  43.1010000
  39.9689408 145.5049408  41.5150000  40.0609408 146.2039408  42.1630000
  39.5309408 145.9229408  40.7730000  42.8559408 122.0519408  39.6080000
  43.6339408 121.5559408  39.8640000  42.6389408 122.5739408  40.3800000
  40.9059408 142.2719408  31.9450000  40.8709408 141.3879408  31.5790000
  40.4339408 142.8129408  31.3120000  30.6149408 134.7429408  32.4330000
  29.9859408 135.4539408  32.5520000  31.4659408 135.1429408  32.6100000
  45.8529408 143.8829408  37.9390000  45.9139408 143.7729408  36.9900000
  46.7569408 144.0099408  38.2250000  37.6779408 135.6369408  48.2270000
  37.3809408 135.6059408  49.1360000  38.4549408 135.0779408  48.2080000
  34.3649408 142.5619408  40.9050000  33.8259408 143.0119408  41.5560000
  35.0559408 143.1889408  40.6910000  41.6299408 143.2589408  41.2250000
  41.9139408 143.2529408  40.3110000  40.9499408 143.9319408  41.2610000
  33.3079408 142.3489408  44.1740000  33.6449408 143.1049408  43.6930000
  33.8179408 142.3319408  44.9840000  50.0859408 123.0319408  31.4180000
  50.4329408 122.3479408  30.8450000  49.2249408 122.7079408  31.6830000
  58.1769408 122.4219408  50.1510000  57.3749408 122.2089408  50.6290000
  58.4289408 123.2859408  50.4760000  49.2209408 148.9019408  39.3070000
  48.6819408 149.2899408  39.9960000  48.5979408 148.6619408  38.6210000
  30.9919408 119.9949408  55.7370000  31.7769408 120.0659408  55.1940000
  31.2419408 120.3889408  56.5730000  30.7819408 136.6869408  45.9170000
  30.1779408 136.2529408  46.5200000  30.3069408 137.4619408  45.6180000
  36.7389408 144.1779408  39.9850000  36.8389408 145.0859408  40.2700000
  36.8689408 144.2079408  39.0370000  40.4329408 121.4439408  45.7220000
  40.5989408 121.4719408  46.6650000  40.7079408 122.3039408  45.4050000
  41.3089408 139.2199408  55.3400000  42.0399408 139.3309408  54.7320000
  41.4799408 139.8519408  56.0380000  33.3309408 139.3729408  48.2010000
  32.4419408 139.5659408  48.5000000  33.8949408 139.6769408  48.9110000
  56.3379408 128.5209408  44.7070000  55.9319408 129.3879408  44.7270000
  55.5999408 127.9109408  44.7000000  33.1059408 141.9459408  38.1800000
  33.4189408 142.7029408  38.6760000  32.1519408 142.0229408  38.2010000
  45.4369408 143.2539408  50.0090000  46.0059408 143.1119408  49.2530000
  45.0009408 142.4129408  50.1430000  37.0619408 141.4499408  39.2770000
  37.2629408 142.2119408  39.8210000  36.5489408 140.8769408  39.8470000
  42.4839408 146.0199408  59.2340000  42.1589408 145.9759408  60.1330000
  41.7009408 146.1619408  58.7020000  42.0659408 148.8869408  39.7040000
  41.2279408 148.5389408  39.3980000  42.5209408 149.1529408  38.9050000
  41.2699408 146.0949408  46.5260000  41.8939408 146.0249408  45.8040000
  41.2699408 145.2259408  46.9290000  40.8659408 138.4719408  32.7640000
  40.6719408 139.4039408  32.8690000  41.5619408 138.2989408  33.3990000
  43.6439408 120.4429408  31.8470000  42.8629408 120.2199408  31.3410000
  43.6489408 121.3999408  31.8730000  33.1739408 120.5829408  34.5740000
  34.1289408 120.6499408  34.5680000  32.8779408 121.4079408  34.9580000
  39.4209408 141.4549408  37.9740000  38.8169408 141.4819408  38.7160000
  40.2109408 141.8929408  38.2920000  58.8549408 143.9129408  40.4620000
  58.1329408 143.2899408  40.3720000  58.5459408 144.5469408  41.1090000
  39.8059408 135.8759408  51.7940000  38.8959408 136.1509408  51.9020000
  39.7489408 134.9669408  51.5000000  37.9939408 141.3219408  44.6600000
  38.8919408 141.3319408  44.9910000  37.9779408 142.0019408  43.9870000
  55.4639408 145.1709408  38.5830000  54.5769408 145.4189408  38.3240000
  55.9009408 144.9499408  37.7600000  54.4759408 140.8279408  49.0240000
  55.3199408 141.0919408  48.6570000  54.7019408 140.2359408  49.7420000
  38.2409408 139.7249408  55.2630000  38.0479408 139.1849408  56.0300000
  39.1959408 139.7239408  55.2030000  42.9509408 121.3049408  42.5350000
  43.5739408 120.6049408  42.7320000  42.1069408 120.9639408  42.8300000
  59.8429408 146.8959408  38.9490000  59.2369408 146.1979408  38.6960000
  60.4319408 146.4839408  39.5810000  43.2739408 146.0209408  35.5640000
  43.0779408 145.8549408  36.4860000  42.5129408 145.6839408  35.0920000
  43.9679408 143.1959408  42.7510000  43.0609408 143.1179408  42.4530000
  44.4749408 143.3119408  41.9480000  37.9659408 143.2009408  54.6000000
  38.6309408 142.7009408  54.1270000  37.9549408 144.0549408  54.1660000
  58.8189408 148.9629408  49.5480000  59.3499408 148.7979408  50.3270000
  57.9169408 148.8389408  49.8420000  37.1999408 122.1849408  49.7970000
  37.7519408 121.4189408  49.6400000  36.4489408 121.8439408  50.2840000
  46.6659408 132.2829408  31.1970000  46.1439408 133.0379408  30.9240000
  46.2319408 131.9649408  31.9890000  41.4439408 135.8639408  53.9440000
  42.0879408 136.3889408  53.4680000  40.7859408 135.6379408  53.2870000
  44.5009408 132.8519408  35.8720000  44.3729408 132.6739408  36.8040000
  43.6179408 132.8409408  35.5020000  40.8959408 139.7499408  39.9370000
  40.1039408 139.8069408  40.4710000  41.6099408 139.9329408  40.5480000
  49.0259408 134.6979408  35.6060000  49.1789408 135.5409408  36.0320000
  48.8219408 134.0999408  36.3250000  36.7689408 148.4729408  44.2330000
  37.3599408 149.2059408  44.4070000  35.9639408 148.6979408  44.6990000
  39.7699408 142.6009408  56.6800000  39.2829408 142.6389408  55.8560000
  39.7329408 143.4939408  57.0220000  57.3529408 120.3099408  42.8330000
  57.5099408 119.6729408  43.5300000  57.9369408 121.0399408  43.0390000
  42.1129408 138.3489408  37.7370000  41.7449408 138.5769408  38.5910000
  41.5649408 138.8179408  37.1070000  54.6629408 139.5749408  42.4850000
  54.9049408 138.8659408  43.0800000  54.1909408 139.1409408  41.7740000
  31.4539408 149.7109408  45.8930000  31.4329408 150.6619408  46.0040000
  32.2849408 149.5399408  45.4500000  36.8329408 140.5419408  47.8900000
  37.4509408 139.8449408  47.6710000  36.2749408 140.1639408  48.5700000
  55.2199408 134.8659408  31.3530000  55.3179408 134.0859408  30.8060000
  54.4369408 135.3009408  31.0120000  48.8679408 147.6099408  33.3490000
  49.7269408 147.3279408  33.6620000  48.2529408 147.2769408  34.0020000
  38.3579408 124.1779408  31.8600000  38.4489408 124.8209408  32.5630000
  37.5369408 123.7239408  32.0540000  41.2019408 148.7629408  33.4690000
  41.2119408 149.5939408  33.9450000  41.6049408 148.9659408  32.6240000
  36.1329408 143.5059408  50.1000000  36.3269408 143.2889408  49.1880000
  36.9599408 143.8419408  50.4480000  40.2109408 148.4339408  41.9620000
  41.0079408 148.2959408  41.4500000  40.5229408 148.6039408  42.8510000
  47.3879408 142.3639408  57.4260000  47.6389408 142.8729408  58.1970000
  48.1209408 142.4709408  56.8190000  31.6809408 148.4499408  37.5820000
  32.3499408 147.9409408  37.1260000  30.8959408 147.9039408  37.5440000
  55.9239408 142.7609408  43.2040000  55.7279408 142.7439408  42.2670000
  56.0819408 141.8459408  43.4340000  49.3099408 146.6769408  44.0320000
  49.6109408 146.8749408  44.9190000  49.3619408 145.7229408  43.9680000
  33.3539408 144.7089408  39.0660000  33.7559408 145.5449408  39.3010000
  32.5179408 144.9489408  38.6650000  31.4129408 146.7549408  30.3960000
  32.1889408 147.0679408  29.9310000  31.2349408 145.8959408  30.0140000
  59.6089408 147.8679408  45.3230000  60.1049408 147.1339408  44.9590000
  60.2649408 148.5469408  45.4810000  52.3659408 134.6299408  38.6880000
  51.7399408 134.6659408  39.4110000  53.1379408 135.0919408  39.0160000
  31.5119408 139.0599408  43.6060000  30.8219408 139.4449408  43.0660000
  32.0049408 138.5029408  43.0030000  33.9449408 146.8669408  48.1460000
  33.7629408 146.8199408  47.2080000  34.4529408 147.6719408  48.2510000
  43.2799408 142.0519408  45.6120000  42.3279408 141.9589408  45.6370000
  43.5199408 141.8259408  44.7140000  42.9559408 141.3659408  36.3640000
  43.4859408 141.8059408  35.6990000  42.4029408 140.7609408  35.8690000
  33.4409408 126.1809408  31.9050000  34.0029408 126.8479408  31.5100000
  33.9759408 125.7989408  32.6010000  47.0119408 143.5979408  30.0990000
  47.4669408 144.3679408  30.4400000  46.1409408 143.9179408  29.8630000
  37.1949408 142.4749408  58.1130000  36.6079408 142.3649408  57.3650000
  38.0739408 142.3999408  57.7400000  48.2589408 132.5979408  37.4360000
  47.7069408 131.9699408  36.9700000  47.6589408 133.0499408  38.0290000
  30.1369408 123.5589408  35.8370000  29.9919408 122.6449408  35.5950000
  30.0729408 123.5669408  36.7920000  45.3399408 140.8529408  58.1340000
  44.7079408 141.5289408  57.8920000  46.1799408 141.1839408  57.8140000
  49.9039408 120.2909408  56.3150000  49.3069408 120.0529408  57.0240000
  50.2959408 121.1169408  56.5980000  56.3759408 143.1479408  52.1470000
  55.9069408 143.8409408  51.6830000  57.2419408 143.1299408  51.7400000
  38.6959408 124.9359408  56.2190000  38.5659408 124.8349408  57.1620000
  37.9669408 125.4869408  55.9330000  35.0549408 120.9999408  57.6170000
  35.2369408 121.8089408  57.1400000  34.9239408 120.3429408  56.9330000
  42.6159408 142.0489408  54.5270000  42.7129408 141.7699408  55.4380000
  43.1399408 141.4229408  54.0270000  34.7479408 146.4299408  32.0810000
  34.8309408 145.7089408  32.7050000  33.9279408 146.8609408  32.3190000
  39.2759408 146.4629408  44.7030000  39.7309408 146.2569408  45.5190000
  39.1089408 147.4049408  44.7520000  53.3719408 149.3539408  46.9710000
  53.3079408 148.3989408  46.9860000  52.9949408 149.6059408  46.1290000
  46.2559408 143.4489408  52.4580000  45.9049408 143.5529408  51.5740000
  45.4959408 143.5559408  53.0320000  36.9949408 135.9949408  50.7340000
  36.4209408 135.7369408  51.4560000  36.9939408 136.9519408  50.7580000
  46.4109408 147.9309408  46.0400000  46.7929408 148.4529408  46.7440000
  46.9819408 148.0879408  45.2870000  44.1419408 144.1589408  54.0840000
  43.6309408 143.3779408  54.2940000  43.5819408 144.6599408  53.4910000
  43.5379408 136.9969408  52.3460000  44.1009408 136.3869408  52.8230000
  43.4289408 136.5979408  51.4830000  43.4829408 139.4799408  53.5240000
  43.6019408 138.6709408  53.0260000  44.1959408 139.4769408  54.1620000
  35.5179408 140.8639408  30.6340000  34.6129408 140.9029408  30.3240000
  35.8689408 141.7369408  30.4600000  33.9199408 143.7329408  57.9040000
  33.7749408 142.7969408  57.7640000  34.6069408 143.7729408  58.5690000
  53.3409408 145.3679408  56.2690000  53.8739408 145.7849408  55.5910000
  52.6439408 145.9989408  56.4470000  51.0999408 147.1969408  56.2780000
  50.7519408 147.3389408  55.3980000  51.3499408 148.0699408  56.5810000
  44.6979408 145.7839408  49.6430000  44.8279408 145.7939408  48.6940000
  44.6369408 144.8559408  49.8670000  41.6579408 149.4879408  55.1230000
  41.5199408 150.2759408  55.6490000  42.5939408 149.3049408  55.2060000
  35.6269408 145.5319408  52.0670000  36.1349408 145.9269408  51.3580000
  35.2669408 144.7309408  51.6870000  38.4599408 122.5539408  54.9290000
  38.0919408 121.8119408  55.4080000  38.4689408 123.2689408  55.5650000
  33.5699408 140.9729408  57.9310000  32.6959408 140.8599408  57.5580000
  34.1639408 140.6609408  57.2500000  54.5209408 137.0009408  52.3890000
  55.1209408 136.3069408  52.6620000  53.6929408 136.7869408  52.8180000
  41.6979408 140.0789408  59.7730000  40.8099408 139.8989408  59.4640000
  42.0089408 139.2409408  60.1130000  40.6369408 141.0749408  45.7480000
  41.0509408 140.3259408  46.1760000  40.8889408 140.9959408  44.8280000
  37.8009408 137.6069408  56.9660000  37.9509408 138.0929408  57.7770000
  38.6709408 137.3129408  56.6970000  44.6939408 147.6009408  59.4540000
  43.7959408 147.3609408  59.6810000  44.6029408 148.1929408  58.7070000
  44.6019408 148.8039408  53.5100000  45.1489408 148.3629408  54.1610000
  44.6489408 149.7299408  53.7450000  38.0119408 145.6129408  59.1090000
  37.3469408 145.9979408  59.6800000  37.5689408 145.4959408  58.2690000
  47.2359408 145.8399408  54.2300000  47.9919408 145.7569408  53.6490000
  46.6439408 145.1399408  53.9550000  46.3829408 145.0279408  46.5230000
  45.9809408 144.9789408  45.6560000  46.6939408 145.9299408  46.5930000
  29.8979408 145.6919408  52.9550000  29.7849408 144.8959408  53.4740000
  30.8379408 145.7319408  52.7780000  38.7329408 145.2859408  32.7840000
  39.4529408 145.3559408  32.1580000  38.2929408 146.1349408  32.7390000
  56.7709408 123.6649408  52.7270000  56.7729408 122.8369408  53.2070000
  57.3549408 124.2339408  53.2270000  35.4859408 137.0279408  55.4590000
  35.3769408 136.1209408  55.7470000  36.3439408 137.2849408  55.7970000
  39.9189408 123.5539408  51.8240000  39.1149408 123.4609408  52.3350000
  40.5089408 122.8899408  52.1800000  41.3379408 148.9519408  57.8980000
  40.3879408 148.9459408  57.7800000  41.6909408 148.7969408  57.0220000
  38.4839408 132.6569408  42.7750000  38.7579408 133.2109408  42.0450000
  39.2489408 132.1129408  42.9640000  34.8689408 142.0059408  34.4930000
  35.4839408 142.3369408  33.8380000  35.3879408 141.9349408  35.2950000
  31.1839408 143.8679408  32.2820000  31.7039408 143.3719408  31.6500000
  31.6219408 143.7219408  33.1200000  31.2759408 140.9209408  52.3260000
  31.5259408 140.2529408  51.6880000  31.9619408 141.5849408  52.2600000
  37.4129408 146.2019408  50.0570000  37.4249408 146.6489408  49.2110000
  38.2419408 146.4469408  50.4690000  40.8449408 122.1909408  58.1290000
  39.9649408 121.9919408  57.8090000  40.7209408 122.4099408  59.0520000
  42.1609408 141.0939408  57.1720000  41.3539408 141.5889408  57.0280000
  42.4389408 141.3399408  58.0540000  51.6459408 145.8579408  49.2480000
  51.8839408 145.4889408  48.3980000  51.1379408 145.1669408  49.6750000
  31.9099408 146.0429408  56.4380000  31.0299408 146.3809408  56.2760000
  31.8099408 145.4669408  57.1960000  56.5009408 143.4099408  33.8900000
  57.2679408 143.2959408  33.3290000  56.1529408 144.2679408  33.6490000
  42.1069408 148.3369408  52.1520000  42.8629408 148.3479408  52.7390000
  41.9139408 149.2609408  51.9920000  36.9049408 149.6589408  54.4020000
  37.4049408 149.1249408  55.0190000  37.5369408 149.8999408  53.7250000
  45.8789408 122.1039408  51.6990000  45.5149408 121.9559408  52.5720000
  46.7829408 121.7959408  51.7610000  38.8949408 141.6709408  49.8570000
  38.2309408 141.5909408  49.1720000  38.9859408 140.7849408  50.2080000
  49.3409408 139.3989408  50.3370000  49.0289408 139.1119408  49.4790000
  48.5439408 139.5879408  50.8320000  44.5349408 123.3569408  58.7370000
  44.1719408 122.4879408  58.5610000  45.0539408 123.5609408  57.9590000
  47.1019408 135.7249408  55.9070000  47.7749408 136.4049408  55.8650000
  46.2939408 136.1989408  56.1020000  43.0649408 121.5539408  50.0000000
  43.9649408 121.6039408  50.3230000  42.9399408 120.6309408  49.7800000
  38.2529408 121.2669408  58.1430000  37.5959408 121.4079408  58.8250000
  38.1889408 120.3329408  57.9390000  40.1359408 142.0139408  53.1660000
  40.2959408 142.4989408  52.3560000  40.9959408 141.9489408  53.5810000
  48.4869408 128.0279408  31.6070000  49.1999408 128.3819408  32.1380000
  48.0509408 128.7999408  31.2450000  45.1319408 137.2609408  56.3960000
  45.2409408 137.6919408  57.2440000  44.5449408 136.5269408  56.5740000
  37.2789408 146.4109408  56.2950000  36.3539408 146.2849408  56.0820000
  37.7199408 146.4259408  55.4460000  44.4529408 140.9099408  33.7780000
  44.3679408 140.7669408  32.8350000  45.0229408 140.2019408  34.0770000
  37.1399408 147.5469408  47.6840000  36.8289408 147.2759408  46.8200000
  36.5409408 148.2459408  47.9460000  55.0939408 123.0129408  55.4040000
  54.7599408 122.6939408  54.5660000  55.6369408 122.2969408  55.7340000
  45.7979408 148.7229408  33.2530000  45.6619408 147.7969408  33.0530000
  45.1299408 149.1799408  32.7420000  39.0859408 121.1759408  31.1750000
  38.4019408 120.5059408  31.1510000  38.6729408 121.9539408  30.8020000
  38.0329408 149.1679408  40.5370000  38.6119408 148.8459408  41.2270000
  37.5109408 149.8489408  40.9610000  42.8329408 136.8609408  43.8650000
  42.4649408 135.9809408  43.9370000  42.1939408 137.3459408  43.3420000
  38.4229408 148.5869408  57.7970000  38.0969408 148.0029408  57.1120000
  38.0209408 148.2599408  58.6020000  43.1219408 135.2349408  56.3590000
  42.9999408 134.2859408  56.3360000  43.2029408 135.4879408  55.4390000
  35.5019408 120.1759408  50.8970000  35.1519408 120.8029408  51.5300000
  35.3639408 119.3209408  51.3060000  44.6709408 127.7959408  35.3550000
  45.3629408 127.6749408  34.7050000  44.3999408 126.9069408  35.5840000
  42.2429408 126.3459408  37.8770000  43.0639408 125.9189408  37.6340000
  41.5769408 125.9019408  37.3520000  40.7739408 126.2109408  59.9660000
  41.1209408 126.8889408  60.5450000  40.1539408 126.6719408  59.4000000
  54.9609408 135.1169408  36.4150000  54.0719408 135.3439408  36.1410000
  55.4919408 135.8699408  36.1570000  49.3769408 127.5459408  42.7920000
  49.5639408 127.9789408  41.9590000  48.9799408 128.2279408  43.3340000
  59.9389408 132.9329408  50.1570000  59.2409408 133.5489408  49.9330000
  59.5489408 132.0699408  50.0180000  53.4369408 128.0999408  44.6000000
  53.0629408 128.4679408  43.7990000  53.0709408 127.2169408  44.6520000
  57.4789408 123.9939408  40.6530000  57.3369408 124.2939408  39.7560000
  57.7139408 123.0699408  40.5640000  53.8419408 127.9109408  41.1330000
  53.2649408 128.4849408  40.6300000  54.5029408 127.6239408  40.5030000
  54.1399408 121.3499408  40.9420000  53.2239408 121.4689408  41.1920000
  54.1099408 120.7419408  40.2040000  52.8249408 141.8459408  59.9020000
  53.1099408 141.1609408  60.5080000  53.3979408 141.7459408  59.1420000
  30.0609408 126.7279408  47.5830000  30.7789408 127.3319408  47.7720000
  29.7179408 127.0209408  46.7390000  49.3879408 132.0239408  31.7080000
  48.4449408 132.1189408  31.5730000  49.5609408 131.0969408  31.5410000
  48.6229408 124.8899408  42.5080000  49.1929408 124.4829408  41.8550000
  48.9969408 125.7609408  42.6440000  58.2209408 143.3229408  44.8680000
  57.5639408 143.4529408  44.1850000  59.0359408 143.1649408  44.3900000
  57.7609408 122.7849408  33.9490000  58.2159408 122.0179408  33.6010000
  57.0409408 122.9349408  33.3370000  45.8699408 127.0169408  30.6600000
  45.2029408 126.8519408  31.3270000  46.4569408 127.6569408  31.0610000
  49.5339408 137.2399408  56.6460000  50.2919408 136.8729408  56.1910000
  49.5379408 136.8119408  57.5020000  55.9399408 125.4359408  44.7680000
  56.1589408 125.8389408  43.9280000  55.7629408 124.5199408  44.5560000
  55.4509408 126.9699408  35.4990000  54.8859408 126.2069408  35.3780000
  55.7639408 127.1789408  34.6180000  30.4629408 142.8909408  43.2580000
  30.2129408 141.9829408  43.0880000  31.3599408 142.8359408  43.5870000
  44.7979408 131.2589408  50.4950000  44.1209408 131.7319408  50.0110000
  45.3779408 131.9449408  50.8280000  48.4659408 143.8039408  39.1880000
  48.8379408 144.6159408  38.8460000  48.9149408 143.1109408  38.7040000
  46.7079408 127.0059408  33.8860000  47.1969408 127.5149408  33.2390000
  46.7849408 126.0999408  33.5860000  35.6159408 123.9159408  47.9620000
  36.1299408 123.4149408  48.5940000  35.1099408 123.2559408  47.4870000
  55.2969408 125.6169408  49.7390000  56.1719408 125.2819408  49.5430000
  54.9219408 125.8239408  48.8830000  40.5079408 127.1349408  50.9140000
  41.3479408 126.7929408  50.6060000  40.6289408 127.2549408  51.8560000
  35.4309408 128.9249408  43.3460000  34.5449408 128.8439408  43.6980000
  35.4069408 129.7229408  42.8170000  59.5329408 120.6999408  33.3760000
  60.1959408 120.7629408  32.6890000  59.1429408 119.8339408  33.2540000
  49.1209408 131.3209408  43.8360000  48.7309408 131.3989408  42.9650000
  48.7629408 132.0599408  44.3270000  53.4509408 136.6139408  47.9200000
  53.0099408 137.2459408  47.3520000  52.8429408 136.4799408  48.6470000
  31.2429408 145.3819408  41.0890000  31.8839408 144.7989408  40.6820000
  30.4409408 144.8619408  41.1370000  30.5589408 123.4369408  32.1060000
  30.9039408 123.9419408  31.3700000  29.6199408 123.3699408  31.9320000
  55.4529408 143.0009408  36.3470000  56.1639408 142.5919408  36.8410000
  55.8259408 143.1649408  35.4810000  49.8289408 132.1619408  34.8400000
  50.2879408 132.3219408  35.6640000  49.5549408 133.0299408  34.5450000
  48.0169408 127.0069408  57.2190000  47.3259408 126.5609408  57.7080000
  48.0999408 126.5049408  56.4080000  55.5609408 131.1319408  45.4750000
  55.1189408 130.5969408  46.1340000  54.8589408 131.6419408  45.0700000
  31.6959408 134.5629408  35.6540000  31.0739408 134.5129408  34.9270000
  31.7619408 133.6639408  35.9750000  56.7429408 123.6139408  47.8620000
  56.4659408 124.0829408  47.0750000  56.0469408 122.9769408  48.0200000
  51.6259408 139.4869408  31.2030000  52.4039408 139.0829408  31.5860000
  51.3859408 140.1789408  31.8190000  49.8959408 127.7829408  59.2340000
  49.4559408 127.5179408  58.4260000  49.2739408 127.5689408  59.9280000
  59.2179408 143.7659408  35.8380000  59.3659408 144.3189408  35.0710000
  59.4309408 142.8809408  35.5410000  51.2669408 120.7559408  38.5830000
  51.3999408 121.0999408  39.4660000  50.5919408 120.0849408  38.6870000
  54.1839408 124.4299408  59.2750000  53.9199408 125.0219408  58.5710000
  53.4349408 124.4179408  59.8720000  57.0209408 120.6149408  53.3560000
  56.1119408 120.3729408  53.1770000  57.4589408 119.7839408  53.5400000
  57.0549408 140.3509408  43.5330000  56.2059408 140.0659408  43.1960000
  57.4329408 139.5649408  43.9270000  53.3629408 125.0449408  41.8150000
  53.7649408 125.8809408  41.5770000  54.1039408 124.4649408  41.9930000
  54.9759408 121.0289408  50.1130000  54.6729408 121.3969408  49.2830000
  54.4759408 121.4979408  50.7810000  52.5319408 143.9129408  46.2690000
  53.3199408 143.8259408  46.8050000  52.8589408 144.0669408  45.3830000
  56.3219408 127.4929408  53.9420000  56.3019408 126.7529408  54.5480000
  57.1049408 127.9849408  54.1900000  30.1739408 131.8329408  41.6060000
  30.4409408 131.6049408  42.4960000  30.8999408 132.3529408  41.2630000
  55.7369408 139.1459408  38.1800000  54.8499408 139.1279408  38.5390000
  56.1869408 138.4239408  38.6170000  46.6539408 129.5689408  37.1000000
  46.2859408 129.1019408  36.3490000  47.5579408 129.2609408  37.1550000
  48.3429408 145.7469408  36.0430000  48.8659408 144.9999408  35.7510000
  47.5969408 145.7659408  35.4440000  34.7929408 145.8129408  35.2480000
  34.3529408 146.6369408  35.4600000  34.0799408 145.1949408  35.0880000
  53.2419408 143.1659408  40.4920000  52.9709408 143.7249408  39.7630000
  52.5509408 142.5069408  40.5570000  55.7379408 146.5139408  46.0000000
  55.5399408 145.6189408  45.7260000  54.8859408 146.8929408  46.2160000
  30.0309408 126.3349408  37.2890000  29.4529408 125.8939408  36.6650000
  30.7089408 126.7369408  36.7450000  35.4109408 121.6389408  44.1010000
  36.3529408 121.5459408  43.9540000  35.1199408 122.2449408  43.4200000
  50.9789408 131.3509408  58.1040000  51.4849408 130.7389408  58.6380000
  51.4719408 131.4199408  57.2860000  42.0409408 123.7889408  30.3090000
  41.4489408 124.5119408  30.1020000  42.7159408 123.8299408  29.6310000
  54.4599408 122.0869408  47.5660000  54.6979408 122.1839408  46.6440000
  53.9199408 121.2969408  47.5930000  38.5499408 124.3989408  49.4280000
  39.1569408 124.0959408  50.1040000  37.8149408 123.7869408  49.4750000
  57.6739408 127.2299408  58.4930000  58.1929408 128.0039408  58.2730000
  57.5139408 126.7999408  57.6530000  51.2339408 121.7299408  41.0500000
  51.0569408 121.7479408  41.9900000  51.0979408 122.6329408  40.7630000
  52.1169408 126.2239408  46.4610000  51.5759408 126.8179408  46.9810000
  51.6809408 126.1839408  45.6100000  47.0459408 129.7769408  60.0950000
  46.9329408 130.7139408  60.2500000  47.3599408 129.7189408  59.1920000
  57.9949408 121.5439408  39.2960000  57.6689408 120.7739408  39.7610000
  57.5859408 121.4939408  38.4320000  34.1849408 139.2609408  45.5620000
  33.2749408 139.4589408  45.3410000  34.2369408 139.3929408  46.5080000
  51.5719408 136.0879408  49.4610000  51.2589408 136.5549408  50.2350000
  52.0279408 135.3219408  49.8100000  54.5889408 132.8039408  48.0590000
  55.3309408 132.2919408  47.7360000  54.9889408 133.5189408  48.5550000
  32.6959408 124.0899408  51.8710000  32.3059408 123.5869408  51.1560000
  32.9999408 124.8979408  51.4560000  59.8669408 142.4849408  53.7190000
  60.5199408 142.0109408  53.2050000  59.1229408 142.5889408  53.1250000
  52.9719408 149.7709408  36.6800000  52.3179408 150.1079408  37.2920000
  53.6439408 149.3789408  37.2390000  60.0319408 129.3559408  37.3470000
  59.0959408 129.2539408  37.5190000  60.1719408 128.9109408  36.5120000
  42.1399408 127.4559408  42.2220000  43.0799408 127.4309408  42.0430000
  41.9669408 126.6499408  42.7080000  52.2569408 132.3619408  41.4830000
  51.7519408 133.1539408  41.2990000  52.2079408 131.8529408  40.6740000
  57.9939408 128.9349408  48.7130000  58.8849408 128.7869408  49.0320000
  57.4419408 128.4079408  49.2910000  55.9349408 141.0989408  58.9360000
  55.4299408 141.0179408  58.1280000  56.4369408 141.9069408  58.8260000
  32.6369408 128.9269408  38.6340000  33.0599408 129.1289408  39.4690000
  31.7709408 129.3279408  38.7010000  31.9669408 128.2519408  48.4270000
  32.8179408 128.6559408  48.5950000  31.4089408 128.5619408  49.1400000
  57.5039408 125.9579408  42.6760000  57.6349408 125.1329408  42.2080000
  57.4329408 126.6169408  41.9850000  50.1629408 123.2489408  37.1740000
  50.7889408 122.6829408  37.6270000  49.4289408 123.3299408  37.7820000
  46.8479408 149.6619408  40.6200000  46.3209408 149.0759408  41.1630000
  46.2789408 149.8849408  39.8840000  35.8869408 130.2809408  35.3640000
  35.6359408 130.8369408  36.1020000  35.8729408 130.8659408  34.6070000
  52.0509408 147.8479408  51.3780000  52.2919408 147.3129408  50.6220000
  52.4079408 148.7149408  51.1820000  56.0049408 148.4509408  50.5770000
  55.3879408 147.8689408  50.1320000  55.6789408 149.3319408  50.3920000
  45.9519408 135.9449408  30.6750000  45.0699408 135.6069408  30.8280000
  46.3909408 135.2529408  30.1800000  52.1649408 127.7679408  38.6350000
  53.0789408 127.4839408  38.6030000  52.1279408 128.5239408  38.0490000
  54.3869408 130.8979408  37.2380000  54.6949408 131.3449408  38.0260000
  55.0989408 131.0059408  36.6070000  50.4669408 147.5979408  46.5020000
  50.0149408 148.4079408  46.7400000  49.9129408 146.9009408  46.8520000
  47.1799408 144.4859408  41.5940000  47.1339408 144.0919408  40.7230000
  47.8769408 145.1389408  41.5260000  57.1109408 127.9229408  40.7590000
  56.6699408 128.6599408  41.1820000  57.2859408 128.2279408  39.8680000
  54.4309408 128.2329408  30.1660000  54.9999408 128.8329408  29.6840000
  54.9499408 127.9689408  30.9260000  57.6649408 137.8339408  50.4340000
  57.0099408 137.9209408  51.1270000  57.7929408 138.7259408  50.1110000
  50.4459408 125.7249408  35.9510000  50.6899408 124.9389408  36.4390000
  51.2809408 126.0999408  35.6680000  34.0989408 137.2339408  50.9040000
  33.5579408 137.6299408  50.2210000  34.7849408 137.8809408  51.0720000
  53.0409408 145.6989408  37.7480000  52.2169408 146.1149408  37.4950000
  53.0589408 144.8799408  37.2530000  45.0709408 123.1099408  41.9730000
  45.9309408 122.7019408  41.8700000  44.5769408 122.4959408  42.5170000
  31.2549408 126.8109408  44.1630000  30.3669408 126.7379408  44.5100000
  31.5479408 127.6809408  44.4330000  31.2039408 138.3319408  38.1590000
  31.7869408 138.4599408  38.9080000  30.4139408 137.9419408  38.5330000
  40.8509408 138.0429408  50.5640000  41.5169408 137.8769408  49.8970000
  40.6929408 137.1879408  50.9640000  55.3289408 133.5029408  41.5810000
  55.0329408 134.2309408  42.1270000  56.1189408 133.1829408  42.0170000
  57.1119408 147.8559408  44.3000000  56.6299408 147.3489408  44.9530000
  58.0099408 147.8809408  44.6300000  54.7879408 122.1149408  35.8990000
  54.1839408 121.3719408  35.9120000  55.6579408 121.7159408  35.9040000
  49.4179408 135.1679408  46.0930000  50.2329408 134.6729408  46.0060000
  49.6999408 136.0539408  46.3210000  57.7659408 133.5989408  33.8470000
  57.7389408 133.8419408  34.7720000  57.9009408 134.4269408  33.3850000
  35.1689408 134.5189408  46.3780000  35.8409408 134.4369408  47.0540000
  34.4199408 134.9079408  46.8290000  52.8469408 134.3839408  59.2860000
  53.0729408 135.2939408  59.4810000  52.3399408 134.4319408  58.4760000
  54.5049408 123.7859408  38.3370000  54.6659408 123.1259408  37.6630000
  55.3689408 123.9629408  38.7110000  57.8919408 135.9599408  31.8140000
  57.0629408 135.4949408  31.6950000  58.2699408 136.0039408  30.9360000
  51.4209408 125.9589408  43.7260000  50.7449408 126.4539408  43.2630000
  52.0389408 125.6999408  43.0420000  34.4059408 130.8699408  31.0480000
  33.6999408 131.4429408  31.3470000  35.1239408 131.0339408  31.6600000
  47.9489408 137.1749408  41.2960000  47.9059408 136.2389408  41.0990000
  48.8179408 137.2979408  41.6800000  55.4809408 131.9639408  39.4060000
  55.1199408 132.5119408  40.1030000  56.2799408 131.5939408  39.7810000
  57.2379408 124.9699408  38.0610000  57.3909408 125.8909408  38.2740000
  57.5609408 124.8749408  37.1650000  54.1389408 128.9709408  54.3760000
  53.4629408 128.4299408  53.9690000  54.9209408 128.4189408  54.3760000
  46.7859408 138.4209408  31.6810000  46.7219408 137.5299408  31.3370000
  47.4129408 138.8559408  31.1040000  52.8489408 133.5719408  49.9600000
  53.5609408 133.2709408  49.3950000  52.1069408 133.0129408  49.7290000
  53.2589408 120.4689408  44.2250000  53.7039408 119.7619408  43.7580000
  53.9489408 121.1049408  44.4120000  38.5139408 138.9249408  34.6940000
  38.4449408 137.9949408  34.9100000  37.8739408 139.0569408  33.9950000
  30.9149408 132.1979408  33.5130000  30.7669408 132.8599408  32.8380000
  30.2449408 131.5339408  33.3490000  46.2619408 125.6629408  41.8050000
  47.1559408 125.3529408  41.9450000  45.7269408 124.8699408  41.8260000
  55.2609408 122.5219408  45.1500000  56.1599408 122.1979408  45.2140000
  55.1129408 122.6349408  44.2110000  56.0369408 129.7699408  42.4210000
  56.3529408 129.1019408  43.0300000  55.0999408 129.8379408  42.6050000
  53.0209408 128.4339408  33.5050000  53.2149408 129.3699408  33.4500000
  53.4379408 128.1499408  34.3190000  48.3969408 121.7669408  34.5070000
  48.1719408 121.0319408  35.0770000  49.3529408 121.8069408  34.5340000
  57.9889408 129.2129408  55.4190000  58.5799408 129.2639408  56.1700000
  57.4759408 130.0199408  55.4620000  59.4079408 140.4649408  42.4830000
  58.5159408 140.4729408  42.8300000  59.2959408 140.4509408  41.5330000
  49.9099408 128.3669408  40.0660000  49.9099408 129.2509408  39.6990000
  50.6139408 127.9149408  39.6030000  52.6919408 131.3699408  56.1520000
  52.7639408 130.5559408  55.6530000  53.5839408 131.5479408  56.4510000
  52.3429408 137.8229408  43.7280000  52.4789408 138.5569408  44.3260000
  51.4959408 137.9999408  43.3180000  48.5539408 138.9259408  54.6820000
  48.7939408 138.2999408  55.3660000  49.3529408 139.4279408  54.5250000
  30.9789408 131.7839408  36.4660000  30.8059408 131.5689408  35.5490000
  30.8379408 130.9619408  36.9360000  48.5449408 126.2349408  38.9460000
  48.6869408 126.3049408  38.0020000  48.8589408 127.0669408  39.2990000
  47.5829408 122.1169408  41.6990000  47.5359408 121.9249408  42.6360000
  47.4419408 121.2719408  41.2740000  53.0879408 126.0449408  32.2860000
  53.1179408 126.9629408  32.5550000  52.5769408 126.0479408  31.4770000
  49.4299408 149.0179408  30.8690000  50.3869408 149.0099408  30.8630000
  49.1899408 148.4979408  31.6360000  53.0929408 124.5809408  56.6170000
  53.7929408 124.1529408  56.1250000  52.4559408 124.8409408  55.9520000
  59.4029408 141.3029408  46.8030000  59.1189408 142.1149408  46.3830000
  60.2919408 141.4879408  47.1050000  59.9999408 123.3119408  38.7350000
  59.2879408 122.6869408  38.8720000  59.6239408 124.1599408  38.9690000
  37.9229408 120.9289408  37.0610000  38.3859408 121.4039408  37.7510000
  37.6119408 121.6119408  36.4670000  56.0629408 126.2019408  32.8730000
  56.7759408 126.4759408  32.2960000  55.4759408 125.7009408  32.3070000
  55.4119408 140.8149408  31.5320000  55.4999408 140.9999408  30.5970000
  56.2239408 140.3649408  31.7650000  58.3659408 125.4669408  49.3010000
  58.8039408 125.9929408  48.6320000  58.0599408 124.6899408  48.8330000
  43.7059408 120.8079408  58.7940000  42.8089408 120.6749408  59.0990000
  44.2449408 120.6919408  59.5770000  50.9419408 124.3839408  47.7550000
  50.5819408 123.9059408  47.0080000  51.5239408 125.0359408  47.3640000
  49.5519408 133.4549408  59.3200000  49.6209408 132.9329408  60.1200000
  49.9389408 132.9039408  58.6400000  59.4049408 129.7769408  31.2160000
  59.7829408 129.6169408  30.3520000  58.8879408 128.9919408  31.4010000
  53.8139408 136.7889408  59.7140000  53.7769408 137.3819408  60.4640000
  54.6549408 136.9789408  59.2980000  32.6029408 136.3849408  57.6050000
  32.3689408 136.0419408  56.7430000  33.5349408 136.1849408  57.6980000
  51.4199408 133.2069408  54.2540000  51.6209408 132.3409408  54.6100000
  51.2789408 133.0559408  53.3200000  54.3839408 136.4509408  56.5200000
  54.4989408 137.3369408  56.1780000  54.0379408 136.5779408  57.4040000
  59.1759408 130.3779408  52.4850000  58.2839408 130.5879408  52.2080000
  59.0939408 130.1619408  53.4140000  57.5159408 131.6489408  48.8270000
  57.5849408 130.6959408  48.7670000  57.6049408 131.8379408  49.7610000
  58.1189408 133.0759408  53.9840000  58.7619408 132.6759408  54.5710000
  57.4529408 133.4369408  54.5690000  54.1129408 121.7349408  58.1150000
  54.7809408 121.4299408  57.5010000  54.4059408 122.6089408  58.3730000
  51.7639408 133.3609408  32.3840000  51.7739408 133.7069408  31.4920000
  50.9559408 132.8499408  32.4340000  30.6829408 124.4809408  56.5800000
  30.8219408 124.3349408  55.6450000  30.8769408 125.4089408  56.7100000
  58.0309408 145.7699408  30.2010000  57.6519408 146.3839408  29.5710000
  58.7909408 146.2309408  30.5560000  32.9169408 130.2559408  52.9200000
  32.3259408 130.8239408  52.4250000  33.4999408 130.8599408  53.3800000
  51.1939408 124.9999408  54.4080000  50.3499408 125.2639408  54.7730000
  51.2559408 124.0639408  54.5980000  56.5439408 125.5789408  55.9390000
  55.8209408 124.9659408  55.8060000  57.3229408 125.0939408  55.6660000
  58.7599408 148.1839408  33.0480000  58.8759408 147.2849408  33.3560000
  59.4779408 148.3219408  32.4310000  32.6489408 127.0719408  53.3300000
  32.9159408 127.8839408  52.8980000  32.1039408 126.6239408  52.6820000
  52.4329408 144.4709408  30.8190000  51.6569408 144.3989408  31.3750000
  52.5059408 143.6149408  30.3970000  57.0089408 127.7539408  50.9100000
  57.1639408 127.5669408  51.8360000  56.1749408 127.3249408  50.7160000
  33.2349408 138.6979408  54.7910000  32.6099408 137.9739408  54.8150000
  34.0829408 138.2909408  54.9680000  35.1829408 135.2449408  58.7310000
  35.2499408 134.6459408  57.9880000  36.0909408 135.4169408  58.9820000
  49.5569408 139.2589408  34.7920000  49.8279408 138.5009408  34.2750000
  49.5719408 139.9889408  34.1730000  56.9399408 130.5709408  35.5480000
  57.2969408 131.4359408  35.7460000  57.5429408 130.2049408  34.9000000
  52.1869408 127.3489408  53.2340000  52.6329408 127.2299408  52.3960000
  51.9849408 126.4599408  53.5270000  53.0549408 146.8219408  45.9560000
  52.1179408 146.8199408  46.1500000  53.1779408 146.0819408  45.3610000
  56.0829408 134.9759408  52.9120000  56.8299408 134.5689408  52.4730000
  56.1679408 134.7089408  53.8270000  31.7139408 124.7479408  34.2270000
  31.3929408 124.3309408  33.4270000  31.0859408 124.4889408  34.9010000
  56.7119408 148.8939408  31.2240000  57.5319408 148.5429408  31.5710000
  56.3319408 149.3829408  31.9540000  54.2559408 143.5429408  48.3680000
  54.2759408 142.7569408  48.9150000  55.1489408 143.6239408  48.0320000
  57.4089408 148.0439408  58.3580000  56.8659408 148.5749408  58.9420000
  58.0689408 148.6529408  58.0260000  36.1619408 141.5309408  55.3790000
  36.6229408 142.3089408  55.0660000  36.8009408 140.8229408  55.2930000
  54.1759408 138.5089408  31.7660000  54.5339408 139.3739408  31.5650000
  54.8279408 138.1069408  32.3410000  55.2449408 135.1359408  49.2390000
  54.6809408 135.3399408  49.9860000  55.0279408 135.8009408  48.5860000
  57.8889408 122.9389408  30.7890000  57.1389408 122.3659408  30.9500000
  57.5709408 123.8159408  31.0000000  47.5889408 125.9449408  51.8650000
  47.9269408 125.0509408  51.9150000  48.2399408 126.4199408  51.3480000
  48.6329408 123.7929408  57.6990000  49.4459408 123.2949408  57.6140000
  48.5859408 124.0199408  58.6280000  59.2179408 131.7099408  56.2810000
  59.3859408 131.1539408  57.0420000  59.5759408 132.5639408  56.5240000
  50.0679408 126.6019408  50.6770000  50.4109408 125.7399408  50.4420000
  50.8469408 127.1369408  50.8290000  59.4139408 123.1659408  46.0720000
  59.2369408 122.3849408  46.5970000  58.9069408 123.8589408  46.4960000
  56.1419408 132.3979408  57.6270000  55.4329408 132.2329408  58.2480000
  56.9029408 132.5879408  58.1750000  47.8799408 127.6249408  54.1220000
  47.7579408 126.6759408  54.0920000  47.0159408 127.9709408  54.3480000
  51.5639408 135.6829408  55.4200000  52.2419408 135.5029408  56.0710000
  51.3869408 134.8329408  55.0160000  59.8499408 122.5939408  58.7080000
  59.3119408 122.9239408  59.4270000  59.7199408 123.2259408  58.0010000
  54.0009408 124.7069408  35.0710000  53.8849408 124.5229408  34.1390000
  54.2479408 123.8649408  35.4530000  58.6979408 124.9809408  53.9730000
  59.2289408 125.6649408  54.3820000  59.2709408 124.2149408  53.9480000
  32.5169408 123.7909408  58.9940000  32.3399408 124.7299408  59.0370000
  32.0049408 123.4829408  58.2460000  39.8899408 131.8059408  47.1790000
  40.2009408 131.2239408  47.8720000  40.1229408 131.3559408  46.3660000
  32.2539408 135.9619408  54.7120000  31.4929408 135.4689408  54.4070000
  33.0069408 135.4519408  54.4130000  50.1359408 136.2199408  58.9780000
  49.9219408 135.3049408  58.7990000  50.5769408 136.2019408  59.8280000
  50.0029408 129.2039408  53.4090000  50.8009408 128.6759408  53.4560000
  49.3039408 128.6049408  53.6730000  53.6059408 132.7209408  44.1930000
  53.3069408 132.6279408  43.2890000  53.8659408 133.6389408  44.2670000
  51.9269408 138.4589408  57.4240000  51.6859408 139.2179408  57.9550000
  51.2059408 137.8409408  57.5460000  50.6599408 140.6539408  58.5530000
  50.8069408 140.9329408  59.4560000  50.5649408 141.4699408  58.0610000
  53.0969408 127.0939408  50.7320000  53.5719408 127.7899408  50.2780000
  53.5829408 126.2959408  50.5220000  30.1209408 127.1739408  55.0360000
  31.0009408 127.3079408  54.6820000  29.6779408 128.0119408  54.9010000
  51.2829408 124.2129408  40.2370000  52.1709408 124.4309408  40.5200000
  50.9569408 125.0169408  39.8310000  35.2779408 131.5559408  37.5480000
  34.8449408 130.9229408  38.1220000  35.5749408 132.2489408  38.1370000
  36.0519408 126.0389408  42.9900000  36.7619408 125.9259408  42.3580000
  35.9799408 126.9859408  43.1040000  55.8779408 134.2189408  55.3820000
  55.9199408 133.5969408  56.1090000  55.3539408 134.9449408  55.7190000
  56.9689408 146.1229408  52.1750000  57.8909408 146.2139408  52.4190000
  56.8059408 146.8519408  51.5770000  30.5089408 129.7659408  43.8980000
  29.8269408 129.7809408  44.5700000  30.2249408 129.0889408  43.2830000
  52.0069408 133.9469408  46.1180000  52.6479408 133.3789408  45.6900000
  52.4899408 134.3509408  46.8390000  51.3509408 143.5839408  57.1550000
  52.0519408 144.1379408  56.8110000  50.8199408 144.1729408  57.6900000
  33.1369408 135.9089408  47.4420000  33.2879408 136.7359408  47.8990000
  32.3239408 136.0479408  46.9560000  54.1139408 123.7159408  51.1230000
  54.5879408 124.4759408  50.7840000  54.5419408 123.5189408  51.9560000
  29.8739408 129.2279408  57.4500000  30.4399408 129.4969408  56.7260000
  30.4529408 128.7489408  58.0430000  43.7419408 126.4529408  45.6390000
  44.2449408 126.8479408  44.9270000  43.4279408 127.1979408  46.1520000
  58.1879408 132.5169408  59.3490000  59.0379408 132.9559408  59.3450000
  58.2049408 131.9679408  60.1330000  33.9139408 134.3159408  50.0960000
  33.3239408 135.0459408  50.2810000  33.8699408 134.2069408  49.1460000
  49.3529408 129.0949408  49.9650000  48.9699408 129.8979408  50.3180000
  49.1119408 128.4159408  50.5960000  47.2159408 122.2419408  44.2630000
  47.4569408 121.6839408  45.0030000  46.9959408 123.0849408  44.6600000
  35.4609408 134.3169408  56.1370000  34.8509408 133.6819408  55.7600000
  36.2679408 133.8219408  56.2740000  36.1759408 123.6459408  53.8610000
  37.0319408 123.4339408  54.2340000  35.6269408 123.8449408  54.6190000
  30.6509408 134.1239408  53.5250000  29.7119408 133.9479408  53.5810000
  30.9809408 133.4709408  52.9080000  32.0539408 132.5049408  51.6720000
  32.7779408 133.0489408  51.3630000  31.3189408 132.7389408  51.1060000
  57.4739408 128.2959408  37.3770000  57.0789408 129.0559408  36.9490000
  57.4529408 127.6089408  36.7110000  34.6389408 128.2059408  30.3610000
  34.5499408 129.1419408  30.5400000  35.5799408 128.0399408  30.4160000
  33.5789408 125.2939408  44.7230000  34.2869408 125.7469408  44.2640000
  32.8469408 125.9109408  44.7040000  44.3679408 128.5949408  50.4910000
  44.4269408 129.5469408  50.5680000  44.3979408 128.4279408  49.5490000
  32.4339408 149.4479408  51.3220000  31.7669408 148.7629408  51.3040000
  32.1439408 150.0829408  50.6670000  49.6399408 137.0629408  51.6660000
  50.2749408 137.2579408  52.3550000  49.4069408 137.9179408  51.3040000
  57.1349408 132.3819408  51.4320000  56.3539408 131.8949408  51.6950000
  57.7049408 132.3559408  52.2000000  31.7099408 124.5589408  47.3620000
  31.2679408 124.1129408  46.6390000  31.0809408 125.2169408  47.6580000
  33.7859408 123.1389408  35.5410000  34.7399408 123.2159408  35.5740000
  33.5029408 123.8839408  35.0110000  52.3099408 130.3559408  51.7640000
  51.7209408 131.1059408  51.6740000  51.7629408 129.6659408  52.1410000
  58.6129408 140.5529408  50.3810000  59.2029408 140.8629408  51.0670000
  58.5069408 141.3039408  49.7970000  48.5159408 145.7009408  30.7170000
  48.6129408 146.6029408  31.0230000  49.1969408 145.5999408  30.0510000
  54.3199408 135.3179408  43.4330000  53.7379408 136.0469408  43.2200000
  54.8819408 135.6559408  44.1310000  52.5469408 135.5769408  34.2880000
  51.8889408 136.0879408  33.8160000  52.4899408 134.7009408  33.9070000
  49.5539408 120.0589408  47.2370000  49.8519408 120.3489408  46.3750000
  48.6799408 120.4369408  47.3290000  54.5779408 146.1839408  49.7680000
  55.3119408 145.7339408  49.3490000  53.8019408 145.8429408  49.3220000
  51.9709408 149.7309408  34.2900000  51.4919408 150.5529408  34.3860000
  52.2929408 149.5359408  35.1700000  49.7779408 143.9979408  43.5600000
  50.2779408 144.1409408  42.7560000  50.3799408 143.5269408  44.1360000
  46.2369408 122.5929408  37.0360000  46.4979408 121.7169408  36.7530000
  47.0569408 123.0199408  37.2820000  47.8549408 123.6489408  38.8230000
  48.0219408 124.5789408  38.9790000  47.6949408 123.2839408  39.6930000
  50.3289408 144.1079408  32.8240000  49.6049408 144.5969408  32.4350000
  50.2499408 144.2699408  33.7640000  51.6989408 120.0119408  49.4060000
  52.3109408 119.7979408  48.7010000  50.9559408 120.4209408  48.9620000
  57.1489408 141.4149408  38.1260000  57.0169408 141.9989408  38.8730000
  56.3659408 140.8649408  38.1090000  51.1139408 122.1109408  34.7390000
  51.1109408 122.6599408  35.5240000  51.5609408 122.6399408  34.0780000
  52.0079408 130.1399408  46.2200000  51.9829408 130.3189408  45.2790000
  52.8879408 129.7949408  46.3750000  46.6089408 138.0909408  43.3550000
  46.7289408 137.5009408  42.6110000  47.4469408 138.5439408  43.4390000
  57.8639408 137.4319408  39.3610000  57.7469408 137.2979408  40.3010000
  58.3079408 138.2779408  39.2930000  31.0329408 145.6039408  43.9710000
  30.2089408 145.2399408  44.2930000  31.2309408 145.0919408  43.1870000
  31.9339408 149.6879408  48.6420000  32.2469408 148.7839408  48.6550000
  31.5109408 149.7829408  47.7880000  31.1559408 138.4609408  50.0400000
  30.2709408 138.7809408  49.8660000  31.0349408 137.5459408  50.2950000
  32.0799408 148.3339408  33.5080000  31.6479408 148.7749408  32.7770000
  32.4669408 149.0439408  34.0210000  47.4589408 139.6149408  36.9330000
  46.5709408 139.2699408  37.0270000  47.7209408 139.3639408  36.0470000
  55.5019408 145.3549408  58.7860000  56.3499408 144.9159408  58.7100000
  55.0439408 145.1329408  57.9750000  56.6749408 137.5639408  43.5590000
  56.2789408 137.7839408  44.4030000  56.8119408 136.6169408  43.5990000
  49.9319408 143.5469408  35.4520000  49.4589408 142.7149408  35.4690000
  50.8459408 143.3059408  35.6030000  53.0439408 141.6259408  43.4910000
  52.5689408 141.6099408  42.6600000  53.9519408 141.4399408  43.2520000
  51.5259408 147.0239408  33.9340000  51.8329408 146.7029408  33.0860000
  51.8009408 147.9409408  33.9570000  52.5659408 143.1829408  36.2490000
  52.5139408 142.3989408  36.7960000  53.4839408 143.2299408  35.9820000
  32.7359408 143.2419408  51.7040000  32.8889408 143.6109408  50.8350000
  32.5469408 143.9999408  52.2570000  55.2289408 123.2469408  42.4100000
  54.8559408 122.6399408  41.7710000  56.0849408 123.4789408  42.0500000
  33.0529408 146.7679408  45.5720000  32.4119408 146.2939408  45.0430000
  33.1159408 147.6289408  45.1590000  54.1119408 141.8259408  33.7350000
  54.7569408 142.4489408  34.0690000  54.4369408 141.5849408  32.8680000
  55.3229408 136.5199408  33.7300000  55.4299408 135.8639408  33.0410000
  54.4889408 136.2979408  34.1450000  31.2079408 144.3789408  58.9760000
  30.7519408 143.5889408  59.2650000  32.1189408 144.1049408  58.8680000
  55.6729408 140.8899408  53.2500000  55.9379408 141.6929408  52.8020000
  55.0279408 140.4909408  52.6670000  58.0719408 135.0429408  44.1250000
  58.3279408 134.1539408  43.8810000  58.7059408 135.6059408  43.6790000
  51.4969408 137.6769408  38.9910000  50.6869408 137.9649408  39.4120000
  51.2069408 137.1699408  38.2330000  51.3089408 141.2979408  40.9070000
  50.3719408 141.3809408  41.0840000  51.3559408 140.9219408  40.0280000
  49.9409408 145.9629408  58.3800000  49.0549408 146.3189408  58.3170000
  50.3819408 146.2749408  57.5900000  52.7679408 139.3119408  47.3790000
  52.3009408 140.0629408  47.0110000  53.4259408 139.6989408  47.9570000
  49.7129408 141.5399408  37.5910000  49.1179408 140.8719408  37.2500000
  50.5109408 141.0599408  37.8100000  53.7039408 137.7479408  40.5130000
  54.1529408 136.9339408  40.2860000  52.9529408 137.7799408  39.9200000
  57.4709408 145.8359408  36.5070000  57.7579408 144.9329408  36.6370000
  57.3959408 145.9299408  35.5570000  57.1539408 145.2229408  48.8610000
  57.2309408 144.5909408  48.1470000  57.9429408 145.7599408  48.7930000
  58.9979408 135.2499408  47.3840000  58.6679408 135.0439408  48.2580000
  58.5579408 134.6249408  46.8080000  47.0249408 142.7099408  47.6690000
  46.8809408 142.0149408  47.0260000  46.7759408 143.5139408  47.2140000
  55.5159408 122.1409408  32.2740000  54.6969408 122.6339408  32.2290000
  55.2789408 121.3189408  32.7030000  57.8379408 136.4779408  34.9610000
  57.1649408 136.4449408  34.2810000  58.2269408 137.3489408  34.8720000
  48.1619408 131.4479408  48.1310000  48.1129408 131.6889408  49.0560000
  49.0279408 131.7449408  47.8520000  41.7949408 124.1809408  45.4660000
  41.0579408 124.3869408  46.0420000  42.4969408 124.7619408  45.7580000
  54.6279408 149.7129408  33.2650000  53.6809408 149.5999408  33.3410000
  54.9819408 149.3039408  34.0550000  54.1549408 148.4689408  38.6710000
  54.9869408 147.9959408  38.6860000  53.5239408 147.8559408  39.0480000
  57.6299408 148.3429408  37.5860000  57.5669408 147.3909408  37.5050000
  57.5549408 148.5079408  38.5260000  56.7179408 143.2369408  47.1170000
  57.0469408 143.5299408  46.2670000  56.4409408 142.3329408  46.9690000
  58.6429408 143.4169408  32.1320000  59.5469408 143.7219408  32.2000000
  58.2299408 144.0239408  31.5180000  48.1019408 149.3339408  43.8490000
  48.8249408 149.9569408  43.9170000  48.5209408 148.5029408  43.6270000
  30.8829408 135.8929408  50.9960000  31.0199408 135.6469408  51.9110000
  30.0429408 135.4959408  50.7640000  59.7119408 147.0349408  48.1520000
  59.5509408 147.4989408  47.3300000  59.2639408 147.5589408  48.8150000
  37.1339408 143.6299408  47.5170000  36.9599408 144.4419408  47.0430000
  37.4829408 143.0339408  46.8540000  34.8129408 140.6049408  50.3340000
  34.8989408 141.5329408  50.5520000  34.8869408 140.1529408  51.1740000
  55.3029408 146.0099408  41.7730000  55.0519408 145.5969408  40.9470000
  54.6769408 146.7259408  41.8830000  45.4609408 143.4619408  33.0360000
  45.9439408 143.2799408  32.2300000  45.3659408 142.6069408  33.4560000
  43.5109408 147.9189408  45.3630000  44.4469408 147.8499408  45.5500000
  43.2639408 147.0499408  45.0470000  55.1669408 145.1589408  31.8110000
  54.2559408 144.8679408  31.8270000  55.3879408 145.2049408  30.8810000
  51.1539408 147.1659408  36.5480000  51.4189408 146.9389408  35.6570000
  51.5359408 148.0299408  36.7000000  47.0539408 146.8609408  58.2050000
  46.3929408 147.1089408  58.8510000  46.5519408 146.4939408  57.4770000
  46.0469408 124.5639408  45.7710000  46.0809408 124.5099408  46.7260000
  45.4529408 125.2939408  45.5940000  32.8799408 147.4629408  42.2670000
  32.0239408 147.0379408  42.2150000  33.2679408 147.3299408  41.4030000
  58.6919408 139.2009408  33.8620000  59.5599408 138.8229408  33.7170000
  58.1619408 138.8679408  33.1380000  57.3199408 138.8899408  31.5420000
  57.8129408 139.1749408  30.7720000  57.3469408 137.9339408  31.5040000
  30.1709408 145.8719408  33.6420000  30.6029408 145.3299408  32.9810000
  30.8439408 146.4929408  33.9200000  51.9069408 140.2649408  38.2860000
  51.7919408 139.3209408  38.3890000  52.4119408 140.3589408  37.4790000
  50.8209408 145.7819408  41.5460000  50.6039408 145.9449408  40.6280000
  50.7959408 146.6459408  41.9560000  57.3569408 121.1799408  36.2670000
  57.6309408 121.6629408  35.4870000  58.0139408 120.4909408  36.3660000
  48.4929408 140.8929408  41.3400000  48.2899408 140.2629408  40.6490000
  47.8709408 141.6069408  41.2050000  57.5929408 148.9229408  40.4380000
  57.4519408 149.3709408  41.2720000  58.5019408 148.6269408  40.4740000
  39.8979408 148.3239408  47.5680000  40.5479408 147.6229408  47.5210000
  39.0609408 147.8869408  47.4100000  30.6229408 145.0849408  49.8260000
  31.5509408 144.8679408  49.9130000  30.5909408 145.7159408  49.1080000
  42.2699408 136.4249408  58.7760000  42.9509408 137.0969408  58.8060000
  42.4539408 135.9319408  57.9760000  59.5049408 129.6089408  33.9390000
  59.2369408 129.4409408  33.0360000  60.3389408 129.1489408  34.0320000
  54.9399408 148.5519408  42.8940000  55.6679408 148.0659408  43.2810000
  55.3499408 149.3119408  42.4820000  56.2609408 140.5759408  46.5330000
  55.9599408 139.7359408  46.1870000  57.1519408 140.4039408  46.8380000
  30.9209408 149.9589408  39.9480000  31.4189408 149.3979408  39.3520000
  30.0779408 150.0829408  39.5120000  30.1289408 120.2789408  36.1440000
  30.1339408 120.2069408  35.1890000  30.6739408 119.5509408  36.4420000
  50.1059408 146.3139408  38.9570000  50.3829408 146.3689408  38.0430000
  49.8789408 147.2129408  39.1940000  53.6379408 149.1839408  57.3740000
  53.8629408 148.6559408  58.1400000  53.7149408 150.0889408  57.6760000
  47.8029408 121.4979408  32.0150000  47.8179408 121.3079408  32.9530000
  47.9959408 120.6579408  31.5970000  51.2849408 141.4409408  33.2030000
  52.1909408 141.6019408  33.4660000  50.9289408 142.3109408  33.0260000
  54.8339408 138.1349408  45.5300000  55.1179408 137.2749408  45.8380000
  54.2629408 138.4619408  46.2250000  55.9399408 143.0769408  40.1740000
  55.0409408 142.8989408  40.4490000  55.8779408 143.8789408  39.6550000
  37.8459408 124.6539408  58.8310000  38.2209408 124.7389408  59.7070000
  37.3629408 123.8279408  58.8550000  30.5509408 143.0329408  38.3860000
  30.1859408 143.4379408  37.6000000  29.8569408 143.1109408  39.0410000
  51.0919408 122.8469408  57.7180000  51.6289408 122.2659408  58.2570000
  51.7059408 123.5029408  57.3870000  49.0939408 145.2559408  47.6310000
  48.8449408 145.5209408  48.5160000  48.5189408 144.5169408  47.4310000
  54.6889408 146.4959408  53.9890000  55.4609408 146.4079408  53.4300000
  54.0209408 145.9579408  53.5630000  49.7889408 147.3129408  53.2930000
  50.5389408 147.1429408  52.7230000  49.6029408 148.2449408  53.1720000
  56.0789408 148.6559408  35.3270000  56.5179408 148.9459408  36.1270000
  56.5309408 147.8469408  35.0860000  51.9989408 147.5469408  31.0180000
  52.9239408 147.6119408  30.7810000  51.7279408 146.6889408  30.6910000
  47.6129408 140.7449408  33.2240000  47.4149408 139.8939408  32.8320000
  47.7729408 141.3209408  32.4770000  58.7029408 143.2359408  50.3090000
  59.5569408 143.6369408  50.1500000  58.0819408 143.8059408  49.8540000
  49.1839408 142.3919408  49.3730000  48.8759408 142.0519408  50.2130000
  48.3959408 142.4469408  48.8330000  58.9259408 139.3549408  59.1130000
  58.4939408 139.0299408  58.3230000  59.7449408 138.8629408  59.1590000
  52.4529408 142.8319408  54.3870000  53.2899408 143.2969408  54.4070000
  51.9209408 143.3219408  53.7600000  59.3329408 140.1069408  39.6110000
  60.1389408 140.5079408  39.2850000  58.7129408 140.1949408  38.8870000
  59.7389408 121.2499408  52.7270000  59.9719408 120.5979408  52.0660000
  58.7969408 121.1349408  52.8560000  44.6139408 144.3099408  58.8680000
  43.7559408 144.7329408  58.8890000  45.0889408 144.7639408  58.1720000
  31.4839408 140.5129408  56.1210000  31.9909408 139.8839408  55.6070000
  30.8779408 140.9039408  55.4910000  56.4009408 130.1289408  59.6700000
  56.3809408 130.6799408  60.4520000  56.2529408 130.7369408  58.9450000
  59.0999408 146.4319408  55.9860000  58.5239408 146.4859408  56.7480000
  58.5919408 145.9469408  55.3350000  57.4289408 144.6289408  54.5640000
  56.6139408 144.5409408  54.0710000  57.3679408 143.9629408  55.2490000
  56.4519408 138.2429408  53.9800000  56.5979408 139.0739408  53.5290000
  55.5169408 138.0689408  53.8690000  56.6279408 125.1689408  60.1560000
  55.8039408 124.7719408  59.8740000  56.6229408 126.0389408  59.7570000
  32.8429408 145.7119408  53.1490000  33.7689408 145.4969408  53.0340000
  32.8479408 146.5679408  53.5780000  53.8769408 141.7659408  57.1800000
  54.5629408 142.2469408  56.7180000  53.0929408 142.3049408  57.0720000
  58.0669408 135.0089408  50.1910000  58.0739408 135.9439408  49.9830000
  57.1889408 134.8459408  50.5340000  56.0639408 137.5379408  58.8710000
  56.7539408 136.9079408  58.6660000  56.4249408 138.3839408  58.6060000
  59.9059408 148.0329408  51.8660000  59.3759408 148.3819408  52.5830000
  60.0419408 147.1129408  52.0930000  57.5559408 143.3009408  58.4550000
  58.1949408 143.8009408  58.9620000  58.0589408 142.9369408  57.7270000
  57.8099408 137.9179408  56.6380000  57.3599408 138.3039408  55.8870000
  57.8709408 136.9859408  56.4280000  50.8229408 140.4389408  54.5460000
  51.4419408 141.1659408  54.6110000  50.8099408 140.2179408  53.6140000
  56.1169408 120.6769408  56.5390000  55.8869408 120.0879408  55.8210000
  56.9099408 120.2969408  56.9170000  54.0979408 132.2559408  59.3850000
  53.7049408 133.1289408  59.3770000  53.3609408 131.6629408  59.5350000
  33.7959408 122.6399408  31.5360000  33.1589408 123.0979408  30.9870000
  33.2689408 122.0539408  32.0780000  59.0779408 142.0099408  56.4940000
  59.7929408 141.5059408  56.8830000  59.4689408 142.4279408  55.7270000
  56.4579408 142.1029408  55.8250000  57.2999408 141.6859408  56.0080000
  56.1359408 141.6579408  55.0400000  54.2699408 149.2149408  54.6630000
  54.2869408 148.9489408  55.5820000  54.4699408 148.4149408  54.1780000
  49.3969408 142.8279408  55.2380000  49.5079408 142.1059408  54.6190000
  50.1119408 142.7199408  55.8640000  50.7379408 123.9019408  50.2470000
  50.8629408 123.9519408  49.3000000  51.6089408 124.0529408  50.6130000
  59.0199408 148.8129408  54.3330000  59.8619408 149.1639408  54.6250000
  58.8459408 148.0819408  54.9260000  46.8359408 121.2099408  57.0900000
  47.4759408 120.5949408  57.4500000  47.1229408 122.0669408  57.4050000
  56.1579408 146.4039408  33.9090000  55.6669408 147.2129408  34.0520000
  55.8099408 146.0549408  33.0890000  47.0399408 148.4119408  54.8180000
  47.5809408 148.5059408  55.6020000  47.1749408 147.5059408  54.5410000
  53.6199408 144.9529408  52.0760000  52.8519408 144.5989408  51.6270000
  54.1499408 145.3379408  51.3780000  51.2529408 143.5169408  50.7880000
  50.5179408 143.0819408  50.3570000  50.8559408 143.9929408  51.5170000
  33.1729408 149.6979408  53.8650000  32.8949408 149.4999408  52.9710000
  33.6089408 150.5479408  53.7990000  54.4219408 129.4159408  50.1160000
  55.2529408 129.6309408  50.5400000  53.7539408 129.7569408  50.7110000
  32.7039408 141.1609408  30.5350000  31.8629408 141.6189408  30.5440000
  32.8899408 141.0209408  29.6060000  48.5739408 146.5729408  49.9790000
  49.3969408 147.0059408  50.2050000  47.9349408 146.9379408  50.5900000
  53.9579408 121.6669408  53.3620000  53.0839408 121.9459408  53.6370000
  54.0009408 120.7409408  53.6010000  58.8059408 136.1259408  59.0390000
  59.4149408 136.8549408  58.9240000  59.3669408 135.3549408  59.1220000
  53.5929408 140.4459408  36.1030000  54.4549408 140.0469408  36.2220000
  53.6239408 140.8299408  35.2270000  51.0189408 141.9559408  47.3460000
  50.6409408 142.0609408  48.2200000  51.4569408 142.7889408  47.1720000
  59.3579408 126.4659408  51.7420000  58.9689408 126.1709408  50.9190000
  59.0259408 125.8529408  52.3980000  35.0389408 140.2599408  53.3180000
  35.4329408 140.8059408  53.9980000  34.2329408 139.9279408  53.7140000
  54.5659408 147.9129408  59.5880000  54.9279408 147.0679408  59.3220000
  55.1819408 148.2429408  60.2420000  52.3159408 120.6029408  30.0200000
  52.8489408 120.3259408  30.7650000  52.9519408 120.8169408  29.3370000
  32.0639408 122.4419408  49.6400000  32.0359408 123.1009408  48.9460000
  31.3919408 121.8059408  49.3950000  46.0279408 149.2599408  48.5900000
  45.0909408 149.1729408  48.4130000  46.1359408 148.9249408  49.4800000
  50.3859408 144.2079408  53.2040000  50.0829408 145.1069408  53.3300000
  49.8389408 143.6859408  53.7910000  30.8689408 126.2169408  30.9050000
  31.1979408 126.6709408  30.1290000  31.6129408 126.1979408  31.5060000
  34.5629408 145.8619408  55.9740000  33.6279408 146.0279408  56.0910000
  34.7009408 144.9909408  56.3480000  40.0009408 146.2329408  51.9690000
  40.8279408 145.7619408  52.0740000  40.2609408 147.1449408  51.8330000
  43.1139408 149.2469408  48.1040000  43.4209408 148.6579408  47.4150000
  42.3449408 149.6749408  47.7280000  34.1209408 133.6749408  73.7610000
  34.0209408 134.4239408  74.3480000  34.6659408 133.0579408  74.2490000
  49.4019408 137.0039408  63.4620000  49.3069408 136.1259408  63.8320000
  48.6369408 137.1089408  62.8970000  36.9639408 147.2739408  64.1330000
  36.2589408 146.7169408  64.4630000  36.9889408 148.0129408  64.7410000
  51.1249408 121.1489408  81.7350000  50.9649408 120.2999408  81.3230000
  51.6349408 121.6379408  81.0890000  36.7109408 138.7099408  81.4700000
  36.3839408 139.3649408  82.0880000  37.6529408 138.8729408  81.4250000
  41.8849408 131.9679408  72.0810000  41.2899408 131.2449408  72.2800000
  42.7569408 131.5759408  72.1090000  35.8789408 126.9689408  68.7010000
  35.4139408 126.1719408  68.4480000  35.9029408 127.4959408  67.9020000
  45.1049408 137.8279408  75.6050000  44.2939408 137.6459408  75.1300000
  45.7899408 137.7719408  74.9380000  30.6359408 134.0729408  68.5360000
  29.8129408 134.3929408  68.1640000  30.9089408 133.3719408  67.9450000
  48.8559408 138.6129408  69.2840000  48.4689408 138.1719408  70.0410000
  48.1489408 139.1559408  68.9360000  39.0639408 128.6819408  77.8260000
  38.4579408 128.2489408  78.4280000  39.3939408 127.9759408  77.2700000
  41.2259408 131.3479408  65.7040000  40.6419408 131.7979408  66.3140000
  41.6789408 130.6969408  66.2400000  47.4669408 135.2269408  77.9080000
  47.9479408 135.1439408  78.7320000  48.1319408 135.1079408  77.2300000
  52.0799408 129.5039408  66.3360000  51.9909408 129.7379408  65.4120000
  52.7389408 130.1109408  66.6740000  35.6149408 133.6859408  68.9500000
  35.7649408 133.7169408  69.8950000  34.7539408 134.0859408  68.8300000
  59.3079408 138.9599408  75.2020000  59.6479408 139.5329408  75.8900000
  59.8979408 139.0979408  74.4610000  42.9309408 145.5519408  74.1980000
  43.8639408 145.3599408  74.1090000  42.5239408 145.1209408  73.4470000
  58.0369408 125.5629408  65.5490000  57.0969408 125.6829408  65.4130000
  58.2159408 124.6789408  65.2300000  48.3629408 141.3589408  60.6810000
  47.7089408 142.0489408  60.5670000  48.2789408 140.8169408  59.8970000
  40.6849408 135.9839408  66.6650000  41.1339408 136.8249408  66.7490000
  39.8769408 136.0929408  67.1670000  58.7999408 129.9389408  75.7730000
  57.8609408 129.9999408  75.5990000  58.8569408 129.5959408  76.6650000
  32.3889408 140.7699408  63.8460000  33.1819408 141.3059408  63.8470000
  32.6729408 139.9199408  64.1820000  47.9779408 134.4559408  70.6650000
  47.2519408 134.3639408  70.0480000  47.7039408 133.9559408  71.4340000
  43.5299408 134.6779408  60.5350000  42.9009408 133.9769408  60.7060000
  43.0779408 135.2629408  59.9270000  46.9329408 142.0279408  73.3670000
  47.2779408 142.9039408  73.1980000  47.6629408 141.4399408  73.1730000
  41.7599408 143.1179408  68.5430000  41.6899408 143.8819408  67.9720000
  42.0759408 142.4179408  67.9710000  44.5309408 146.0489408  61.8910000
  45.1549408 146.0429408  61.1650000  44.9719408 145.5639408  62.5890000
  31.5889408 127.8679408  65.1380000  31.9129408 127.0799408  64.7030000
  32.3749408 128.2939408  65.4810000  34.3779408 121.6949408  76.6380000
  33.4469408 121.8319408  76.4640000  34.7679408 121.5709408  75.7730000
  41.0189408 122.1809408  78.1460000  40.7569408 123.1019408  78.1390000
  41.6919408 122.1279408  78.8240000  45.1549408 120.6799408  68.8720000
  44.7649408 121.4279408  68.4200000  45.0899408 119.9599408  68.2450000
  45.4189408 134.0349408  73.0950000  44.8099408 133.9809408  73.8320000
  44.8679408 134.2559408  72.3440000  36.8749408 146.9259408  69.7580000
  37.0919408 147.8089408  70.0560000  37.0169408 146.9499408  68.8120000
  58.5349408 135.5709408  67.6430000  58.4489408 136.1489408  66.8850000
  58.1879408 136.0809408  68.3750000  38.3539408 126.3839408  63.5020000
  39.0179408 126.9059408  63.0520000  37.9879408 126.9769408  64.1590000
  54.3849408 129.4109408  77.3650000  54.7209408 128.5179408  77.2950000
  54.2909408 129.5589408  78.3060000  37.7939408 133.7699408  67.0920000
  37.1589408 133.5089408  67.7590000  38.3649408 133.0079408  66.9930000
  39.0859408 122.8069408  72.3010000  39.2659408 123.2629408  71.4790000
  39.7729408 123.1059408  72.8980000  45.8509408 133.9929408  69.0110000
  45.1649408 134.5659408  68.6690000  45.4019408 133.1709408  69.2080000
  37.6489408 137.3009408  72.5020000  37.1329408 137.8939408  73.0490000
  37.6139408 136.4609408  72.9600000  52.4549408 123.6049408  62.6640000
  51.6819408 123.5749408  62.1000000  52.7979408 124.4919408  62.5530000
  51.2289408 140.5009408  74.9470000  50.8759408 141.0379408  75.6570000
  51.9479408 141.0209408  74.5870000  41.1919408 146.2969408  61.5580000
  41.2509408 147.2469408  61.6600000  41.6389408 145.9449408  62.3270000
  34.6869408 123.6109408  72.3470000  33.8339408 123.9499408  72.0730000
  35.2309408 124.3909408  72.4540000  41.3659408 140.8169408  72.9800000
  41.3449408 141.5859408  72.4090000  42.2869408 140.5579408  72.9990000
  45.5709408 124.5019408  83.2080000  46.1229408 125.1429408  82.7600000
  45.2669408 123.9189408  82.5130000  44.5329408 139.5259408  67.8070000
  44.0209408 138.9609408  68.3850000  43.9069408 140.1799408  67.4950000
  34.9169408 134.0799408  66.0540000  35.2429408 133.2809408  66.4690000
  34.3959408 134.5079408  66.7330000  41.9419408 124.9309408  78.4310000
  42.8109408 125.3169408  78.3240000  41.7659408 124.9919408  79.3700000
  32.9999408 143.7209408  64.9930000  32.5599408 143.1309408  65.6050000
  33.7909408 143.2499408  64.7310000  39.3909408 125.9979408  73.5600000
  38.4679408 125.8209408  73.7410000  39.5449408 125.6099408  72.6990000
  36.4589408 139.0469408  74.2110000  35.7969408 138.9559408  74.8960000
  37.0899408 139.6709408  74.5690000  42.7269408 124.7419408  73.0350000
  43.5559408 124.2759408  72.9230000  42.3699408 124.4009408  73.8560000
  40.9189408 135.5149408  71.9010000  40.0709408 135.1079408  71.7250000
  40.7289408 136.4519408  71.9560000  41.2779408 128.6519408  69.3500000
  41.3409408 127.9429408  69.9910000  40.6729408 129.2789408  69.7440000
  37.3769408 148.8119408  61.6800000  36.6809408 148.2869408  61.2850000
  37.2869408 148.6599408  62.6210000  45.6899408 138.6069408  64.5490000
  45.8669408 138.6029408  63.6090000  46.2479408 137.9129408  64.9010000
  36.0069408 120.8799408  64.4630000  36.8559408 120.4709408  64.2940000
  36.1609408 121.8149408  64.3310000  39.4119408 128.7209408  66.5640000
  39.9009408 128.4549408  67.3430000  40.0189408 129.2819408  66.0810000
  40.9679408 138.3959408  75.9660000  41.6029408 137.8829408  75.4660000
  40.1389408 137.9329408  75.8490000  39.0729408 130.0809408  69.9790000
  39.3089408 130.3209408  70.8750000  38.1399408 129.8699408  70.0250000
  38.6629408 143.0849408  65.7270000  39.1639408 142.7029408  66.4480000
  39.3049408 143.2099408  65.0280000  42.1909408 123.0269408  66.6490000
  42.5829408 123.5069408  67.3790000  42.8259408 122.3399408  66.4440000
  32.7639408 130.3209408  75.9390000  32.1979408 130.7929408  75.3280000
  32.1579408 129.8679408  76.5260000  33.7929408 125.9289408  78.5460000
  34.5359408 125.3939408  78.2680000  33.0419408 125.5539408  78.0850000
  37.2649408 125.4869408  70.7700000  36.6499408 126.0649408  70.3180000
  37.6409408 124.9459408  70.0760000  34.4899408 124.3149408  68.6110000
  33.8189408 123.6769408  68.8510000  34.7519408 124.0669408  67.7250000
  48.2059408 131.1969408  71.0920000  48.7899408 131.1579408  70.3350000
  47.3289408 131.0939408  70.7250000  42.6159408 122.7419408  62.6460000
  42.2479408 123.1119408  61.8440000  43.2749408 123.3789408  62.9240000
  33.9959408 130.0319408  79.2360000  34.7059408 129.4889408  78.8920000
  34.1359408 130.8909408  78.8370000  43.6049408 129.6929408  63.1680000
  44.0819408 128.9459408  63.5280000  44.2209408 130.4239408  63.2310000
  40.6809408 131.2849408  60.4750000  40.9629408 131.9649408  59.8630000
  40.5939408 131.7389408  61.3140000  36.1979408 148.7859408  67.3920000
  35.6229408 149.3219408  67.9370000  36.9389408 149.3569408  67.1890000
  45.6389408 126.6119408  68.9870000  45.6199408 126.6119408  69.9440000
  46.5409408 126.8459408  68.7660000  46.1629408 140.3279408  69.8410000
  45.8969408 140.1039408  68.9500000  45.7949408 139.6309408  70.3840000
  48.8369408 139.6889408  73.6890000  49.6529408 139.8079408  74.1740000
  49.0429408 139.9709408  72.7980000  37.3569408 134.9479408  74.1060000
  36.7409408 134.6609408  74.7800000  37.7119408 134.1349408  73.7450000
  52.1589408 131.9809408  68.6940000  52.2029408 132.9319408  68.6020000
  52.8179408 131.6489408  68.0840000  31.5759408 121.8369408  72.3790000
  31.6699408 121.3979408  71.5340000  31.7809408 122.7539408  72.1980000
  39.7979408 133.5629408  80.7020000  39.9119408 132.6129408  80.6900000
  40.2249408 133.8659408  79.9000000  42.6309408 133.1459408  74.3340000
  42.2629408 133.3379408  73.4710000  42.9819408 132.2589408  74.2530000
  40.1429408 128.5439408  62.9460000  40.7999408 128.6049408  62.2530000
  40.5939408 128.8529408  63.7320000  34.7069408 135.4199408  83.1280000
  34.5639408 135.8999408  82.3120000  34.9709408 136.0909408  83.7570000
  32.9149408 136.4549408  74.3630000  33.5279408 137.1049408  74.7050000
  32.2449408 136.3749408  75.0420000  39.9729408 121.6209408  69.1660000
  40.8859408 121.7839408  68.9290000  40.0159408 121.2549408  70.0490000
  42.5159408 129.3919408  67.0440000  42.9239408 128.9559408  66.2950000
  42.6179408 128.7729408  67.7670000  50.6819408 134.5549408  70.8580000
  50.4699408 134.9719408  71.6930000  49.8309408 134.3559408  70.4670000
  35.0659408 132.1979408  78.1450000  35.8319408 131.7159408  77.8330000
  34.6889408 132.5859408  77.3550000  34.4699408 126.9909408  81.0950000
  34.3759408 126.7169408  80.1820000  34.4599408 127.9469408  81.0610000
  46.7989408 128.8369408  81.9130000  46.1259408 128.2629408  81.5470000
  47.3839408 128.2479408  82.3890000  47.3339408 121.3149408  77.3720000
  47.1459408 122.1649408  77.7700000  46.5919408 120.7639408  77.6200000
  34.3569408 144.6489408  73.1330000  35.1819408 145.0809408  72.9100000
  33.8739408 145.2999408  73.6410000  36.0859408 134.8579408  71.4430000
  35.4669408 135.3769408  70.9300000  35.9959408 135.1919408  72.3360000
  43.4409408 136.1729408  68.5040000  43.3789408 135.9409408  67.5780000
  42.7799408 136.8539408  68.6260000  38.5019408 124.1379408  68.6120000
  38.8629408 124.4539408  67.7840000  38.9809408 123.3279408  68.7890000
  39.2219408 149.9579408  79.5540000  39.1209408 149.3189408  78.8490000
  39.7729408 150.6449408  79.1780000  35.8979408 146.1729408  75.7840000
  34.9769408 146.4009408  75.6590000  36.2559408 146.1269408  74.8980000
  34.1719408 128.0399408  66.5580000  33.5999408 128.3309408  67.2680000
  34.3229408 128.8259408  66.0330000  50.9309408 128.1219408  77.8530000
  50.4899408 128.4399408  78.6410000  51.2959408 128.9089408  77.4480000
  33.5469408 149.1949408  74.3880000  33.4529408 148.7309408  73.5560000
  34.0779408 149.9629408  74.1760000  37.6459408 135.5889408  60.5610000
  38.1379408 134.9059408  61.0160000  38.1499408 136.3889408  60.7110000
  39.7719408 122.8839408  65.6410000  40.6209408 122.7349408  66.0590000
  39.7999408 122.3549408  64.8440000  39.0259408 136.3989408  75.6100000
  38.7289408 136.0099408  76.4320000  38.4029408 136.0809408  74.9560000
  54.9449408 130.7089408  82.4340000  54.4059408 130.1399408  82.9830000
  54.3479408 131.3989408  82.1430000  42.9919408 126.0789408  80.9050000
  43.2669408 126.9929408  80.8340000  43.4549408 125.7489408  81.6750000
  49.7759408 137.0209408  66.7930000  49.6259408 137.7959408  66.2530000
  49.1299408 137.0889408  67.4960000  54.9269408 135.3199408  69.5870000
  55.3159408 134.5869408  70.0650000  55.3279408 135.2809408  68.7190000
  35.7419408 131.5499408  72.2860000  35.5099408 131.7689408  73.1890000
  36.5849408 131.9799408  72.1450000  59.0709408 122.3679408  73.5800000
  59.1899408 122.7229408  74.4610000  59.9599408 122.2269408  73.2550000
  45.3469408 127.8619408  73.5700000  45.5059408 127.1419408  72.9600000
  46.2199408 128.1279408  73.8590000  43.9419408 147.7469408  71.2050000
  43.6119408 147.6369408  72.0970000  43.2129408 148.1429408  70.7270000
  32.4759408 133.4329408  71.5170000  32.9669408 133.3179408  72.3310000
  32.3929408 134.3819408  71.4200000  34.0809408 130.9719408  70.1910000
  33.3579408 131.5829408  70.3280000  34.6869408 131.1519408  70.9110000
  32.4699408 122.2689408  69.4860000  31.9209408 123.0069408  69.2190000
  31.8819408 121.5139408  69.4670000  33.0199408 136.0899408  71.5960000
  32.9749408 136.1599408  72.5500000  33.1089408 136.9939408  71.2930000
  42.5739408 134.1909408  76.7410000  42.6879408 133.7449408  75.9010000
  43.3929408 134.6689408  76.8720000  39.4949408 135.9309408  63.8740000
  39.7659408 135.7989408  64.7830000  39.9059408 136.7569408  63.6190000
  38.0449408 138.2839408  77.2700000  37.8129408 137.5769408  77.8720000
  38.2419408 137.8409408  76.4450000  38.0199408 121.0509408  74.0630000
  38.1869408 121.8039408  73.4960000  38.5849408 121.1939408  74.8240000
  42.3299408 143.4389408  64.0320000  41.5709408 142.9229408  63.7610000
  43.0749408 143.0059408  63.6160000  33.8559408 148.2669408  66.1100000
  33.5329408 149.1219408  65.8250000  34.7399408 148.4389408  66.4320000
  32.1229408 142.1309408  77.8600000  32.8419408 141.8089408  77.3180000
  32.3069408 143.0629408  77.9750000  48.9909408 128.3469408  65.9690000
  49.9089408 128.3779408  66.2400000  48.8449408 127.4349408  65.7200000
  35.8029408 136.0779408  64.3120000  36.5949408 135.6419408  63.9980000
  35.6179408 135.6609408  65.1540000  45.6349408 131.6509408  63.7230000
  46.4549408 131.1739408  63.8460000  45.4639408 132.0589408  64.5730000
  43.6209408 135.0579408  71.2560000  42.8359408 135.3699408  71.7060000
  43.5009408 135.3309408  70.3470000  36.7349408 130.4089408  76.9120000
  37.6709408 130.2119408  76.8740000  36.3309408 129.5979408  77.2210000
  39.1019408 139.7299408  82.1000000  39.8669408 139.3959408  81.6300000
  39.3469408 140.6199408  82.3550000  38.8879408 140.4159408  61.5990000
  38.2829408 139.7779408  61.9770000  38.7719408 141.2019408  62.1330000
  43.4439408 120.5639408  65.1250000  44.2609408 120.5429408  65.6220000
  43.7179408 120.5099408  64.2090000  38.1309408 137.3219408  69.6840000
  38.1119408 138.2399408  69.4110000  37.9969408 137.3509408  70.6310000
  41.8609408 128.8709408  60.8180000  41.4729408 129.7019408  60.5460000
  42.8049408 129.0259408  60.7920000  44.0549408 140.7059408  79.8650000
  43.1819408 140.5199408  80.2090000  44.1139408 140.1809408  79.0660000
  38.7819408 134.8269408  70.5120000  37.8989408 134.6719408  70.8490000
  38.7299408 135.6859408  70.0920000  55.7759408 135.5769408  75.5950000
  56.5949408 135.4519408  75.1160000  55.8309408 134.9639408  76.3280000
  44.7319408 125.0299408  66.7360000  45.2879408 124.2539408  66.6670000
  45.2679408 125.6689408  67.2060000  44.8019408 135.4929408  76.8610000
  44.9129408 136.3009408  76.3600000  45.6729408 135.3059408  77.2110000
  57.4529408 132.4809408  72.6510000  56.9679408 131.6609408  72.7380000
  58.3159408 132.2169408  72.3320000  49.8039408 130.9529408  68.8190000
  50.7069408 131.2619408  68.7410000  49.2889408 131.5889408  68.3220000
  43.6759408 132.0399408  68.3110000  42.9579408 132.4469408  68.7970000
  43.3909408 131.1369408  68.1740000  34.4319408 119.9699408  69.1520000
  34.9539408 120.3289408  69.8690000  33.7079408 120.5879408  69.0490000
  33.1979408 135.2869408  67.9950000  32.5999408 135.4139408  67.2590000
  32.7259408 134.7069408  68.5910000  43.4919408 130.2479408  75.4210000
  44.1179408 130.9619408  75.5410000  44.0109408 129.5349408  75.0460000
  58.8019408 126.7519408  75.1170000  58.5949408 126.3399408  74.2790000
  57.9779408 127.1509408  75.3980000  36.3509408 132.5299408  80.8020000
  35.7639408 132.6359408  80.0530000  36.8079408 133.3679408  80.8690000
  32.1939408 122.4329408  75.0200000  31.9859408 122.0149408  74.1840000
  32.7589408 123.1699408  74.7850000  50.3539408 121.1919408  74.3940000
  51.2449408 121.0649408  74.0680000  50.3279408 122.1089408  74.6690000
  42.9529408 138.1909408  64.7110000  42.8259408 138.4779408  65.6150000
  43.8859408 138.3269408  64.5450000  41.2079408 133.2309408  69.6310000
  41.4929408 133.1859408  70.5430000  40.4689408 133.8389408  69.6400000
  35.2889408 136.5969408  61.2440000  36.1979408 136.4009408  61.4730000
  35.0949408 136.0109408  60.5130000  35.9609408 121.2959408  70.8390000
  36.7089408 121.8909408  70.8830000  35.2019408 121.8499408  71.0230000
  44.0369408 129.3019408  70.0320000  43.0859408 129.2279408  69.9500000
  44.3769408 128.5189408  69.5980000  43.8409408 135.9929408  79.9150000
  43.3829408 135.6059408  79.1690000  44.1529408 136.8389408  79.5910000
  47.9259408 133.8949408  74.1400000  46.9729408 133.9149408  74.2200000
  48.2449408 134.1439408  75.0080000  47.9639408 124.7779408  60.3340000
  47.0519408 125.0459408  60.4500000  48.1979408 124.3589408  61.1630000
  36.0819408 131.7559408  63.1260000  35.2619408 132.2489408  63.0890000
  36.7199408 132.3779408  63.4750000  50.7849408 131.9599408  77.6010000
  51.3309408 131.2469408  77.2700000  50.9109408 132.6709408  76.9720000
  46.0959408 130.7469408  69.5820000  45.3069408 130.3579408  69.9590000
  46.3329408 130.1619408  68.8630000  41.8799408 131.9409408  63.1400000
  41.5959408 131.9629408  64.0530000  42.2839408 131.0799408  63.0340000
  40.6029408 138.1769408  72.3180000  39.6709408 138.0139408  72.4610000
  40.6839408 139.1309408  72.3230000  46.8019408 140.5669408  75.9690000
  47.5409408 139.9729408  75.8380000  46.7199408 141.0359408  75.1380000
  36.3819408 123.8779408  66.2780000  36.8239408 124.1609408  67.0780000
  36.7769408 124.4079408  65.5850000  47.8219408 130.6709408  84.7140000
  47.0509408 130.2079408  84.3860000  48.5589408 130.2549408  84.2680000
  50.9929408 136.8169408  61.4860000  51.3499408 137.6909408  61.3270000
  50.4049408 136.9299408  62.2320000  57.1529408 133.0869408  76.5300000
  57.5009408 132.5009408  77.2020000  56.4709408 132.5749408  76.0950000
  58.4819408 130.9349408  69.6410000  58.8959408 131.1749408  70.4700000
  58.9019408 131.4979408  68.9910000  44.8989408 146.5689408  68.8670000
  44.8359408 146.8249408  69.7880000  44.8469408 145.6129408  68.8800000
  36.4319408 129.2409408  69.6680000  35.6539408 129.7959408  69.6110000
  36.1929408 128.4429408  69.1960000  47.9739408 130.1959408  64.3400000
  48.5639408 130.9399408  64.4650000  48.2259408 129.5729408  65.0210000
  44.5639408 131.3319408  72.5050000  45.3129408 131.9219408  72.4160000
  44.8419408 130.5249408  72.0710000  35.8949408 139.3489408  70.4970000
  35.2319408 139.5939408  71.1420000  35.4229408 138.8129408  69.8600000
  40.5329408 124.8369408  71.0850000  40.4469408 125.5079408  70.4070000
  41.3799408 125.0149408  71.4930000  38.3729408 143.4639408  73.1860000
  39.1639408 143.9339408  72.9220000  37.6539408 143.9979408  72.8490000
  38.0019408 133.8009408  64.2870000  38.6839408 134.4149408  64.0160000
  37.9259408 133.9279408  65.2330000  38.5059408 149.5499408  64.7200000
  39.2599408 149.8159408  64.1930000  38.6619408 149.9459408  65.5770000
  34.0379408 147.2559408  69.9530000  34.9729408 147.0479408  69.9550000
  33.9999408 148.1869408  69.7350000  47.8569408 125.7969408  66.3200000
  48.7739408 125.6119408  66.1180000  47.3679408 125.4069408  65.5960000
  54.8209408 127.4299408  68.6100000  54.9309408 126.7309408  67.9650000
  55.4989408 128.0679408  68.3900000  39.6499408 131.8419408  67.8760000
  40.4039408 132.2779408  68.2730000  39.2779408 131.3139408  68.5820000
  47.8409408 131.3329408  81.0730000  47.5779408 130.4969408  81.4570000
  47.0239408 131.8229408  80.9800000  46.4069408 123.6289408  79.0480000
  47.1099408 124.2789408  79.0450000  46.1969408 123.5069408  79.9740000
  41.6449408 128.1269408  83.6070000  41.9199408 127.4939408  84.2710000
  41.9309408 128.9729408  83.9510000  48.3389408 128.6359408  77.0160000
  48.1949408 129.4509408  77.4970000  49.2549408 128.4159408  77.1850000
  37.8239408 129.7049408  61.9020000  38.6989408 129.3949408  62.1340000
  37.3699408 129.7939408  62.7400000  43.4879408 128.3599408  77.7820000
  42.5719408 128.4729408  78.0380000  43.7179408 129.1799408  77.3450000
  57.1329408 133.4899408  66.5760000  56.2129408 133.7239408  66.4540000
  57.5309408 134.2739408  66.9540000  35.3919408 129.8369408  81.5440000
  34.4879408 130.0839408  81.7380000  35.8819408 130.6569408  81.5990000
  45.6989408 133.6459408  81.5090000  44.9289408 134.2119408  81.4530000
  45.7449408 133.3939408  82.4310000  35.3759408 125.8509408  64.5400000
  35.9379408 126.5929408  64.3170000  35.1269408 126.0039408  65.4520000
  51.4999408 140.8909408  81.6630000  51.5299408 141.8449408  81.5890000
  51.2169408 140.5929408  80.7990000  46.1989408 132.7839408  84.3270000
  46.9519408 132.3809408  84.7590000  45.5079408 132.1229408  84.3830000
  50.3079408 132.6819408  81.5200000  49.5659408 132.7069408  82.1230000
  50.0339408 133.2229408  80.7790000  53.5869408 131.2759408  63.3410000
  52.6949408 131.6219408  63.3230000  54.1119408 131.9439408  62.9000000
  37.8799408 146.0279408  83.7110000  38.5289408 146.2299408  83.0370000
  37.0729408 145.8609408  83.2240000  48.4169408 134.7709408  80.7260000
  48.8399408 135.1919408  81.4750000  47.5249408 134.5919408  81.0240000
  44.9759408 135.1649408  83.9550000  45.6309408 135.7189408  83.5300000
  45.4869408 134.4979408  84.4130000  50.1269408 137.4139408  77.2570000
  50.8569408 138.0169408  77.1180000  50.2649408 137.0689408  78.1390000
  47.7229408 129.0149408  74.5310000  48.2079408 129.8399408  74.5330000
  47.7629408 128.7109408  75.4380000  47.0589408 124.2909408  63.6940000
  47.3229408 123.4279408  64.0130000  46.3329408 124.1129408  63.0950000
  42.1429408 133.0499408  83.4810000  42.7959408 133.1569408  82.7890000
  41.8279408 133.9369408  83.6530000  39.2999408 124.7489408  76.6790000
  38.4779408 124.7659408  76.1890000  39.0309408 124.7099408  77.5970000
  40.2849408 129.8869408  72.5980000  40.8409408 129.1149408  72.4900000
  40.1829408 129.9779408  73.5460000  58.8309408 127.2719408  62.2880000
  58.8699408 126.9779408  63.1980000  59.5399408 126.7969408  61.8530000
  47.8369408 125.8009408  78.3520000  48.7399408 125.6199408  78.0890000
  47.7859408 126.7559408  78.3950000  42.3099408 137.8379408  78.4750000
  41.5999408 137.7869408  77.8350000  42.9599408 138.4099408  78.0670000
  51.5769408 130.0929408  73.5580000  50.8019408 130.5149408  73.9290000
  51.6999408 130.5189408  72.7100000  35.6739408 143.6199408  60.0820000
  36.0949408 143.8689408  60.9050000  36.3839408 143.2649408  59.5480000
  33.0279408 138.2679408  61.4330000  33.1569408 139.2159408  61.4620000
  33.8729408 137.9189408  61.1520000  35.6639408 128.1749408  78.2520000
  36.2629408 127.8789408  78.9380000  35.1889408 127.3859408  77.9920000
  35.9109408 126.2639408  83.1760000  35.8639408 125.3079408  83.1610000
  35.2579408 126.5469408  82.5370000  33.5549408 132.7819408  63.2750000
  32.7219408 132.4139408  63.5720000  33.4619408 133.7249408  63.4110000
  50.1159408 123.8369408  75.0270000  50.6079408 124.5009408  74.5440000
  49.2639408 123.8059408  74.5920000  39.1499408 149.6889408  82.5040000
  39.9349408 150.2339408  82.5540000  39.1679408 149.3219408  81.6200000
  39.0229408 130.0999408  83.4030000  38.3649408 130.6929408  83.7660000
  38.5369408 129.3039408  83.1870000  32.6359408 129.1879408  72.6550000
  32.1249408 129.8089408  73.1730000  31.9839408 128.6069408  72.2650000
  40.1199408 121.7629408  63.4120000  39.5699408 121.8339408  62.6310000
  40.9739408 122.0939408  63.1340000  54.7679408 126.0699408  77.1460000
  53.8289408 126.0299408  76.9640000  55.1819408 125.7409408  76.3480000
  35.1569408 131.4689408  75.1180000  34.3929408 131.0489408  75.5120000
  35.9069408 131.0229408  75.5130000  46.3049408 137.8459408  78.6500000
  46.4699408 138.5339408  78.0040000  46.6669408 137.0539408  78.2540000
  41.4229408 121.4139408  82.3640000  41.7979408 121.2949408  83.2370000
  42.1729408 121.6199408  81.8060000  34.3739408 122.0349408  82.5920000
  35.0449408 122.5869408  82.9950000  33.7539408 122.6539408  82.2080000
  37.8019408 136.5439408  67.0640000  37.6149408 135.6139408  67.1890000
  37.8329408 136.9049408  67.9500000  42.7309408 132.2139408  78.9580000
  42.2289408 131.4239408  78.7610000  42.6519408 132.7509408  78.1690000
  37.4109408 128.2469408  82.5390000  37.0039408 127.3889408  82.6570000
  36.8979408 128.6629408  81.8460000  48.8269408 123.5309408  82.3500000
  48.8589408 122.6169408  82.6340000  49.3369408 123.5479408  81.5400000
  43.0339408 134.4019408  63.2410000  43.4299408 134.6769408  62.4150000
  42.6019408 133.5729408  63.0360000  44.6579408 121.6439408  84.3280000
  45.2989408 121.5509408  85.0330000  43.8909408 122.0299408  84.7510000
  39.2199408 130.8319408  80.8010000  38.2959408 130.9889408  80.6070000
  39.2279408 130.5439408  81.7140000  38.1889408 137.1529408  83.5900000
  39.0689408 137.0679408  83.9560000  37.9749408 138.0809408  83.6910000
  37.2109408 128.0059408  65.3860000  36.6419408 128.7579408  65.5510000
  37.9689408 128.1489408  65.9520000  60.1159408 128.1649408  71.4220000
  60.1929408 127.2509408  71.1470000  59.2939408 128.4639408  71.0340000
  51.0649408 129.6399408  62.0140000  51.5329408 129.0169408  62.5690000
  51.5449408 129.6309408  61.1850000  34.8949408 138.8529408  66.4910000
  35.2919408 139.6979408  66.7040000  35.4089408 138.5259408  65.7530000
  30.8779408 149.1329408  61.2170000  31.1779408 149.6449408  60.4660000
  31.0379408 148.2229408  60.9670000  36.9089408 124.5699408  75.4710000
  36.4269408 125.1219408  74.8560000  36.2819408 124.3849408  76.1700000
  46.1519408 136.8349408  66.9130000  45.4469408 136.5409408  66.3350000
  45.7099408 137.0769408  67.7270000  45.4429408 120.1609408  73.2290000
  46.1079408 119.5109408  73.4580000  45.5879408 120.8799408  73.8430000
  54.0269408 139.3799408  81.4100000  54.2849408 138.4959408  81.6720000
  53.1719408 139.5119408  81.8210000  44.3959408 138.1949408  70.7400000
  44.3709408 138.1429408  71.6950000  44.2869408 137.2889408  70.4480000
  34.5679408 132.7609408  83.3450000  34.5269408 133.7069408  83.4870000
  34.8839408 132.6679408  82.4460000  51.5419408 122.2789408  84.3060000
  51.1949408 122.1159408  83.4290000  51.4429408 121.4439408  84.7630000
  44.6329408 143.1429408  70.1660000  44.8209408 143.6079408  69.3500000
  44.7559408 142.2189408  69.9490000  45.3159408 132.0549408  76.3340000
  44.9349408 132.8129408  76.7780000  46.1729408 131.9419408  76.7450000
  52.2929408 137.8109408  83.8080000  52.1829408 137.0259408  84.3450000
  52.7159408 138.4419408  84.3890000  39.7159408 137.2639408  60.6440000
  40.4809408 136.8889408  60.2080000  40.0779408 137.7609408  61.3780000
  37.2109408 131.8149408  84.3940000  36.3699408 132.1359408  84.0660000
  37.5599408 132.5409408  84.9100000  30.1669408 128.8079408  80.3710000
  29.8829408 128.0049408  80.8070000  29.9809408 129.5029408  81.0020000
  41.3649408 129.9299408  78.7550000  40.7509408 129.2719408  78.4300000
  41.2129408 129.9549408  79.7000000  44.3869408 140.9349408  61.0510000
  43.5169408 141.2199408  60.7720000  44.8489408 140.7409408  60.2360000
  40.7769408 129.9669408  75.3550000  41.7099408 130.1599408  75.2610000
  40.7469408 129.1889408  75.9110000  49.8279408 135.7489408  73.0870000
  50.5869408 135.7009408  73.6680000  49.2939408 134.9909408  73.3260000
  58.4329408 121.3169408  77.7720000  58.3759408 120.3929408  78.0160000
  58.3789408 121.7879408  78.6040000  46.9629408 136.6139408  82.6300000
  46.8069408 137.5369408  82.8310000  47.8629408 136.5879408  82.3060000
  56.9299408 131.9079408  61.8610000  56.9209408 132.4829408  62.6270000
  57.6339408 131.2839408  62.0360000  45.8339408 123.3109408  61.4930000
  46.3929408 122.5349408  61.4550000  45.4889408 123.4019408  60.6050000
  30.8749408 123.4179408  83.9600000  30.5559408 122.5409408  83.7490000
  31.6379408 123.5389408  83.3940000  43.8929408 139.7199408  77.2500000
  43.8199408 140.5249408  76.7370000  44.7049408 139.3139408  76.9450000
  40.5189408 127.1779408  75.9270000  40.5439408 126.3239408  76.3590000
  40.1409408 126.9999408  75.0660000  45.9109408 147.6449408  80.9300000
  45.4609408 146.9469408  80.4540000  45.2979408 147.8989408  81.6190000
  37.9469408 127.0969408  79.7360000  37.9239408 126.1409408  79.7090000
  38.7869408 127.3059408  80.1460000  46.8989408 149.9439408  65.6780000
  46.7499408 149.2089408  66.2740000  46.6159408 149.6199408  64.8230000
  39.8299408 147.2289408  65.4010000  38.9329408 147.4469408  65.1470000
  40.3679408 147.5429408  64.6740000  31.1219408 126.0539408  69.6410000
  30.6489408 126.3209408  68.8530000  31.9209408 126.5809408  69.6320000
  41.1519408 142.9069408  80.7830000  41.1849408 141.9589408  80.9060000
  40.5209408 143.0349408  80.0740000  41.0869408 145.7069408  67.3250000
  40.8939408 146.1889408  68.1280000  40.7599408 146.2699408  66.6230000
  32.6749408 138.7829408  70.9760000  33.1839408 139.3299408  71.5740000
  33.0549408 138.9529408  70.1140000  43.9669408 135.5319408  65.7910000
  44.1179408 134.5939408  65.6770000  43.3829408 135.7699408  65.0710000
  32.1679408 124.6769408  72.0900000  31.6919408 125.0179408  71.3330000
  31.8439408 125.1909408  72.8290000  41.7279408 140.3879408  81.2710000
  41.6209408 139.5149408  80.8940000  42.3419408 140.2629408  81.9960000
  58.0529408 145.8899408  72.2050000  58.2489408 146.7309408  72.6180000
  57.0989408 145.8779408  72.1250000  43.8599408 126.7389408  62.4700000
  43.0679408 127.2019408  62.1940000  43.5509408 126.0939408  63.1060000
  34.9999408 149.5199408  78.2440000  35.1339408 149.6689408  79.1800000
  34.6149408 150.3359408  77.9240000  40.5059408 139.8669408  66.1100000
  39.8559408 139.5139408  65.5030000  39.9949408 140.3779408  66.7380000
  43.0909408 125.1259408  64.6640000  43.6829408 125.1169408  65.4160000
  42.3979408 124.5079408  64.8970000  33.3269408 144.6049408  79.3680000
  34.2059408 144.2289408  79.3230000  33.4169408 145.4729408  78.9750000
  30.0379408 141.4779408  64.6990000  30.9309408 141.1549408  64.5830000
  29.4899408 140.8369408  64.2450000  45.7609408 145.8819408  64.7460000
  45.6409408 145.0999408  64.2060000  44.9199408 145.9989408  65.1890000
  44.2179408 140.3289408  73.1910000  44.4609408 141.2159408  72.9250000
  45.0449408 139.9189408  73.4450000  47.6079408 141.4719408  81.4500000
  47.1129408 142.1989408  81.8280000  47.2049408 140.6879408  81.8230000
  42.8429408 144.9729408  81.9030000  42.4879408 144.2539408  81.3800000
  43.3269408 145.5089408  81.2750000  34.6779408 142.4899408  76.5850000
  35.2769408 143.2359408  76.6160000  35.2109408 141.7439408  76.8610000
  35.7979408 141.3969408  66.7650000  36.4539408 141.7799408  67.3470000
  34.9819408 141.4349408  67.2640000  47.4849408 147.6719408  67.7400000
  46.6389408 147.2889408  67.9700000  47.8719408 147.0489408  67.1250000
  32.3099408 138.7869408  65.5240000  31.6629408 138.6259408  66.2120000
  33.1549408 138.6519408  65.9530000  44.3059408 148.7819408  67.3720000
  44.7559408 148.1469408  67.9280000  43.9669408 148.2639408  66.6420000
  54.3189408 144.7159408  74.1060000  54.8969408 143.9829408  73.8980000
  54.5489408 145.3919408  73.4680000  36.4959408 138.9039408  62.3800000
  35.9039408 139.5189408  61.9470000  35.9969408 138.0889408  62.4350000
  46.4369408 139.0669408  81.2430000  46.5039408 138.3559408  80.6060000
  45.6939408 139.5899408  80.9420000  37.2649408 143.0889408  63.3920000
  37.5729408 143.8519408  62.9040000  37.6459408 143.1919408  64.2640000
  40.3759408 143.4779408  77.1180000  39.6279408 143.2069408  77.6500000
  40.5139408 142.7509408  76.5100000  45.4449408 145.1009408  74.0140000
  46.2459408 145.2109408  73.5020000  45.0809408 144.2679408  73.7140000
  39.1669408 125.4379408  65.7480000  38.8509408 125.6709408  64.8750000
  39.4189408 124.5179408  65.6750000  34.2729408 140.1469408  72.5690000
  33.8439408 140.9559408  72.8460000  35.0339408 140.0699408  73.1450000
  33.2469408 135.4839408  63.2100000  33.6359408 136.1419408  62.6340000
  33.7999408 135.4919408  63.9910000  34.1789408 137.7809408  68.9290000
  34.2309408 138.1619408  68.0530000  33.5919408 137.0319408  68.8310000
  41.1639408 149.3629408  74.0990000  41.9599408 149.0219408  74.5070000
  40.8289408 150.0059408  74.7250000  41.2709408 149.4239408  60.7540000
  41.1439408 149.1009408  59.8620000  40.7259408 150.2099408  60.8040000
  40.1639408 134.3359408  77.9330000  39.7059408 133.4989408  77.8530000
  40.9369408 134.2409408  77.3770000  36.7049408 144.8669408  67.0240000
  37.3139408 144.3839408  66.4660000  36.0519408 145.2189408  66.4190000
  30.7809408 137.7779408  63.0700000  31.3749408 137.8329408  63.8190000
  31.3059408 138.0689408  62.3250000  36.9129408 146.0559408  73.0170000
  36.7609408 146.9919408  73.1450000  37.8609408 145.9539408  73.1010000
  39.9689408 145.5049408  71.5150000  40.0609408 146.2039408  72.1630000
  39.5309408 145.9229408  70.7730000  42.8559408 122.0519408  69.6080000
  43.6339408 121.5559408  69.8640000  42.6389408 122.5739408  70.3800000
  40.9059408 142.2719408  61.9450000  40.8709408 141.3879408  61.5790000
  40.4339408 142.8129408  61.3120000  30.6149408 134.7429408  62.4330000
  29.9859408 135.4539408  62.5520000  31.4659408 135.1429408  62.6100000
  45.8529408 143.8829408  67.9390000  45.9139408 143.7729408  66.9900000
  46.7569408 144.0099408  68.2250000  37.6779408 135.6369408  78.2270000
  37.3809408 135.6059408  79.1360000  38.4549408 135.0779408  78.2080000
  34.3649408 142.5619408  70.9050000  33.8259408 143.0119408  71.5560000
  35.0559408 143.1889408  70.6910000  41.6299408 143.2589408  71.2250000
  41.9139408 143.2529408  70.3110000  40.9499408 143.9319408  71.2610000
  33.3079408 142.3489408  74.1740000  33.6449408 143.1049408  73.6930000
  33.8179408 142.3319408  74.9840000  50.0859408 123.0319408  61.4180000
  50.4329408 122.3479408  60.8450000  49.2249408 122.7079408  61.6830000
  58.1769408 122.4219408  80.1510000  57.3749408 122.2089408  80.6290000
  58.4289408 123.2859408  80.4760000  49.2209408 148.9019408  69.3070000
  48.6819408 149.2899408  69.9960000  48.5979408 148.6619408  68.6210000
  30.7819408 136.6869408  75.9170000  30.1779408 136.2529408  76.5200000
  30.3069408 137.4619408  75.6180000  36.7389408 144.1779408  69.9850000
  36.8389408 145.0859408  70.2700000  36.8689408 144.2079408  69.0370000
  40.4329408 121.4439408  75.7220000  40.5989408 121.4719408  76.6650000
  40.7079408 122.3039408  75.4050000  33.3309408 139.3729408  78.2010000
  32.4419408 139.5659408  78.5000000  33.8949408 139.6769408  78.9110000
  56.3379408 128.5209408  74.7070000  55.9319408 129.3879408  74.7270000
  55.5999408 127.9109408  74.7000000  33.1059408 141.9459408  68.1800000
  33.4189408 142.7029408  68.6760000  32.1519408 142.0229408  68.2010000
  45.4369408 143.2539408  80.0090000  46.0059408 143.1119408  79.2530000
  45.0009408 142.4129408  80.1430000  37.0619408 141.4499408  69.2770000
  37.2629408 142.2119408  69.8210000  36.5489408 140.8769408  69.8470000
  42.0659408 148.8869408  69.7040000  41.2279408 148.5389408  69.3980000
  42.5209408 149.1529408  68.9050000  41.2699408 146.0949408  76.5260000
  41.8939408 146.0249408  75.8040000  41.2699408 145.2259408  76.9290000
  40.8659408 138.4719408  62.7640000  40.6719408 139.4039408  62.8690000
  41.5619408 138.2989408  63.3990000  43.6439408 120.4429408  61.8470000
  42.8629408 120.2199408  61.3410000  43.6489408 121.3999408  61.8730000
  33.1739408 120.5829408  64.5740000  34.1289408 120.6499408  64.5680000
  32.8779408 121.4079408  64.9580000  39.4209408 141.4549408  67.9740000
  38.8169408 141.4819408  68.7160000  40.2109408 141.8929408  68.2920000
  58.8549408 143.9129408  70.4620000  58.1329408 143.2899408  70.3720000
  58.5459408 144.5469408  71.1090000  39.8059408 135.8759408  81.7940000
  38.8959408 136.1509408  81.9020000  39.7489408 134.9669408  81.5000000
  37.9939408 141.3219408  74.6600000  38.8919408 141.3319408  74.9910000
  37.9779408 142.0019408  73.9870000  55.4639408 145.1709408  68.5830000
  54.5769408 145.4189408  68.3240000  55.9009408 144.9499408  67.7600000
  54.4759408 140.8279408  79.0240000  55.3199408 141.0919408  78.6570000
  54.7019408 140.2359408  79.7420000  42.9509408 121.3049408  72.5350000
  43.5739408 120.6049408  72.7320000  42.1069408 120.9639408  72.8300000
  59.8429408 146.8959408  68.9490000  59.2369408 146.1979408  68.6960000
  60.4319408 146.4839408  69.5810000  43.2739408 146.0209408  65.5640000
  43.0779408 145.8549408  66.4860000  42.5129408 145.6839408  65.0920000
  43.9679408 143.1959408  72.7510000  43.0609408 143.1179408  72.4530000
  44.4749408 143.3119408  71.9480000  37.9659408 143.2009408  84.6000000
  38.6309408 142.7009408  84.1270000  37.9549408 144.0549408  84.1660000
  58.8189408 148.9629408  79.5480000  59.3499408 148.7979408  80.3270000
  57.9169408 148.8389408  79.8420000  37.1999408 122.1849408  79.7970000
  37.7519408 121.4189408  79.6400000  36.4489408 121.8439408  80.2840000
  46.6659408 132.2829408  61.1970000  46.1439408 133.0379408  60.9240000
  46.2319408 131.9649408  61.9890000  41.4439408 135.8639408  83.9440000
  42.0879408 136.3889408  83.4680000  40.7859408 135.6379408  83.2870000
  44.5009408 132.8519408  65.8720000  44.3729408 132.6739408  66.8040000
  43.6179408 132.8409408  65.5020000  40.8959408 139.7499408  69.9370000
  40.1039408 139.8069408  70.4710000  41.6099408 139.9329408  70.5480000
  49.0259408 134.6979408  65.6060000  49.1789408 135.5409408  66.0320000
  48.8219408 134.0999408  66.3250000  36.7689408 148.4729408  74.2330000
  37.3599408 149.2059408  74.4070000  35.9639408 148.6979408  74.6990000
  57.3529408 120.3099408  72.8330000  57.5099408 119.6729408  73.5300000
  57.9369408 121.0399408  73.0390000  42.1129408 138.3489408  67.7370000
  41.7449408 138.5769408  68.5910000  41.5649408 138.8179408  67.1070000
  54.6629408 139.5749408  72.4850000  54.9049408 138.8659408  73.0800000
  54.1909408 139.1409408  71.7740000  31.4539408 149.7109408  75.8930000
  31.4329408 150.6619408  76.0040000  32.2849408 149.5399408  75.4500000
  36.8329408 140.5419408  77.8900000  37.4509408 139.8449408  77.6710000
  36.2749408 140.1639408  78.5700000  55.2199408 134.8659408  61.3530000
  55.3179408 134.0859408  60.8060000  54.4369408 135.3009408  61.0120000
  48.8679408 147.6099408  63.3490000  49.7269408 147.3279408  63.6620000
  48.2529408 147.2769408  64.0020000  38.3579408 124.1779408  61.8600000
  38.4489408 124.8209408  62.5630000  37.5369408 123.7239408  62.0540000
  41.2019408 148.7629408  63.4690000  41.2119408 149.5939408  63.9450000
  41.6049408 148.9659408  62.6240000  36.1329408 143.5059408  80.1000000
  36.3269408 143.2889408  79.1880000  36.9599408 143.8419408  80.4480000
  40.2109408 148.4339408  71.9620000  41.0079408 148.2959408  71.4500000
  40.5229408 148.6039408  72.8510000  31.6809408 148.4499408  67.5820000
  32.3499408 147.9409408  67.1260000  30.8959408 147.9039408  67.5440000
  55.9239408 142.7609408  73.2040000  55.7279408 142.7439408  72.2670000
  56.0819408 141.8459408  73.4340000  49.3099408 146.6769408  74.0320000
  49.6109408 146.8749408  74.9190000  49.3619408 145.7229408  73.9680000
  33.3539408 144.7089408  69.0660000  33.7559408 145.5449408  69.3010000
  32.5179408 144.9489408  68.6650000  31.4129408 146.7549408  60.3960000
  32.1889408 147.0679408  59.9310000  31.2349408 145.8959408  60.0140000
  59.6089408 147.8679408  75.3230000  60.1049408 147.1339408  74.9590000
  60.2649408 148.5469408  75.4810000  52.3659408 134.6299408  68.6880000
  51.7399408 134.6659408  69.4110000  53.1379408 135.0919408  69.0160000
  31.5119408 139.0599408  73.6060000  30.8219408 139.4449408  73.0660000
  32.0049408 138.5029408  73.0030000  33.9449408 146.8669408  78.1460000
  33.7629408 146.8199408  77.2080000  34.4529408 147.6719408  78.2510000
  43.2799408 142.0519408  75.6120000  42.3279408 141.9589408  75.6370000
  43.5199408 141.8259408  74.7140000  42.9559408 141.3659408  66.3640000
  43.4859408 141.8059408  65.6990000  42.4029408 140.7609408  65.8690000
  33.4409408 126.1809408  61.9050000  34.0029408 126.8479408  61.5100000
  33.9759408 125.7989408  62.6010000  47.0119408 143.5979408  60.0990000
  47.4669408 144.3679408  60.4400000  46.1409408 143.9179408  59.8630000
  48.2589408 132.5979408  67.4360000  47.7069408 131.9699408  66.9700000
  47.6589408 133.0499408  68.0290000  30.1369408 123.5589408  65.8370000
  29.9919408 122.6449408  65.5950000  30.0729408 123.5669408  66.7920000
  56.3759408 143.1479408  82.1470000  55.9069408 143.8409408  81.6830000
  57.2419408 143.1299408  81.7400000  42.6159408 142.0489408  84.5270000
  42.7129408 141.7699408  85.4380000  43.1399408 141.4229408  84.0270000
  34.7479408 146.4299408  62.0810000  34.8309408 145.7089408  62.7050000
  33.9279408 146.8609408  62.3190000  39.2759408 146.4629408  74.7030000
  39.7309408 146.2569408  75.5190000  39.1089408 147.4049408  74.7520000
  53.3719408 149.3539408  76.9710000  53.3079408 148.3989408  76.9860000
  52.9949408 149.6059408  76.1290000  46.2559408 143.4489408  82.4580000
  45.9049408 143.5529408  81.5740000  45.4959408 143.5559408  83.0320000
  36.9949408 135.9949408  80.7340000  36.4209408 135.7369408  81.4560000
  36.9939408 136.9519408  80.7580000  46.4109408 147.9309408  76.0400000
  46.7929408 148.4529408  76.7440000  46.9819408 148.0879408  75.2870000
  44.1419408 144.1589408  84.0840000  43.6309408 143.3779408  84.2940000
  43.5819408 144.6599408  83.4910000  43.5379408 136.9969408  82.3460000
  44.1009408 136.3869408  82.8230000  43.4289408 136.5979408  81.4830000
  43.4829408 139.4799408  83.5240000  43.6019408 138.6709408  83.0260000
  44.1959408 139.4769408  84.1620000  35.5179408 140.8639408  60.6340000
  34.6129408 140.9029408  60.3240000  35.8689408 141.7369408  60.4600000
  44.6979408 145.7839408  79.6430000  44.8279408 145.7939408  78.6940000
  44.6369408 144.8559408  79.8670000  35.6269408 145.5319408  82.0670000
  36.1349408 145.9269408  81.3580000  35.2669408 144.7309408  81.6870000
  54.5209408 137.0009408  82.3890000  55.1209408 136.3069408  82.6620000
  53.6929408 136.7869408  82.8180000  40.6369408 141.0749408  75.7480000
  41.0509408 140.3259408  76.1760000  40.8889408 140.9959408  74.8280000
  44.6019408 148.8039408  83.5100000  45.1489408 148.3629408  84.1610000
  44.6489408 149.7299408  83.7450000  47.2359408 145.8399408  84.2300000
  47.9919408 145.7569408  83.6490000  46.6439408 145.1399408  83.9550000
  46.3829408 145.0279408  76.5230000  45.9809408 144.9789408  75.6560000
  46.6939408 145.9299408  76.5930000  29.8979408 145.6919408  82.9550000
  29.7849408 144.8959408  83.4740000  30.8379408 145.7319408  82.7780000
  38.7329408 145.2859408  62.7840000  39.4529408 145.3559408  62.1580000
  38.2929408 146.1349408  62.7390000  56.7709408 123.6649408  82.7270000
  56.7729408 122.8369408  83.2070000  57.3549408 124.2339408  83.2270000
  39.9189408 123.5539408  81.8240000  39.1149408 123.4609408  82.3350000
  40.5089408 122.8899408  82.1800000  38.4839408 132.6569408  72.7750000
  38.7579408 133.2109408  72.0450000  39.2489408 132.1129408  72.9640000
  34.8689408 142.0059408  64.4930000  35.4839408 142.3369408  63.8380000
  35.3879408 141.9349408  65.2950000  31.1839408 143.8679408  62.2820000
  31.7039408 143.3719408  61.6500000  31.6219408 143.7219408  63.1200000
  31.2759408 140.9209408  82.3260000  31.5259408 140.2529408  81.6880000
  31.9619408 141.5849408  82.2600000  37.4129408 146.2019408  80.0570000
  37.4249408 146.6489408  79.2110000  38.2419408 146.4469408  80.4690000
  51.6459408 145.8579408  79.2480000  51.8839408 145.4889408  78.3980000
  51.1379408 145.1669408  79.6750000  56.5009408 143.4099408  63.8900000
  57.2679408 143.2959408  63.3290000  56.1529408 144.2679408  63.6490000
  42.1069408 148.3369408  82.1520000  42.8629408 148.3479408  82.7390000
  41.9139408 149.2609408  81.9920000  36.9049408 149.6589408  84.4020000
  37.4049408 149.1249408  85.0190000  37.5369408 149.8999408  83.7250000
  45.8789408 122.1039408  81.6990000  45.5149408 121.9559408  82.5720000
  46.7829408 121.7959408  81.7610000  38.8949408 141.6709408  79.8570000
  38.2309408 141.5909408  79.1720000  38.9859408 140.7849408  80.2080000
  49.3409408 139.3989408  80.3370000  49.0289408 139.1119408  79.4790000
  48.5439408 139.5879408  80.8320000  43.0649408 121.5539408  80.0000000
  43.9649408 121.6039408  80.3230000  42.9399408 120.6309408  79.7800000
  40.1359408 142.0139408  83.1660000  40.2959408 142.4989408  82.3560000
  40.9959408 141.9489408  83.5810000  48.4869408 128.0279408  61.6070000
  49.1999408 128.3819408  62.1380000  48.0509408 128.7999408  61.2450000
  44.4529408 140.9099408  63.7780000  44.3679408 140.7669408  62.8350000
  45.0229408 140.2019408  64.0770000  37.1399408 147.5469408  77.6840000
  36.8289408 147.2759408  76.8200000  36.5409408 148.2459408  77.9460000
  45.7979408 148.7229408  63.2530000  45.6619408 147.7969408  63.0530000
  45.1299408 149.1799408  62.7420000  39.0859408 121.1759408  61.1750000
  38.4019408 120.5059408  61.1510000  38.6729408 121.9539408  60.8020000
  38.0329408 149.1679408  70.5370000  38.6119408 148.8459408  71.2270000
  37.5109408 149.8489408  70.9610000  42.8329408 136.8609408  73.8650000
  42.4649408 135.9809408  73.9370000  42.1939408 137.3459408  73.3420000
  35.5019408 120.1759408  80.8970000  35.1519408 120.8029408  81.5300000
  35.3639408 119.3209408  81.3060000  44.6709408 127.7959408  65.3550000
  45.3629408 127.6749408  64.7050000  44.3999408 126.9069408  65.5840000
  42.2429408 126.3459408  67.8770000  43.0639408 125.9189408  67.6340000
  41.5769408 125.9019408  67.3520000  54.9609408 135.1169408  66.4150000
  54.0719408 135.3439408  66.1410000  55.4919408 135.8699408  66.1570000
  49.3769408 127.5459408  72.7920000  49.5639408 127.9789408  71.9590000
  48.9799408 128.2279408  73.3340000  59.9389408 132.9329408  80.1570000
  59.2409408 133.5489408  79.9330000  59.5489408 132.0699408  80.0180000
  53.4369408 128.0999408  74.6000000  53.0629408 128.4679408  73.7990000
  53.0709408 127.2169408  74.6520000  57.4789408 123.9939408  70.6530000
  57.3369408 124.2939408  69.7560000  57.7139408 123.0699408  70.5640000
  53.8419408 127.9109408  71.1330000  53.2649408 128.4849408  70.6300000
  54.5029408 127.6239408  70.5030000  54.1399408 121.3499408  70.9420000
  53.2239408 121.4689408  71.1920000  54.1099408 120.7419408  70.2040000
  30.0609408 126.7279408  77.5830000  30.7789408 127.3319408  77.7720000
  29.7179408 127.0209408  76.7390000  49.3879408 132.0239408  61.7080000
  48.4449408 132.1189408  61.5730000  49.5609408 131.0969408  61.5410000
  48.6229408 124.8899408  72.5080000  49.1929408 124.4829408  71.8550000
  48.9969408 125.7609408  72.6440000  58.2209408 143.3229408  74.8680000
  57.5639408 143.4529408  74.1850000  59.0359408 143.1649408  74.3900000
  57.7609408 122.7849408  63.9490000  58.2159408 122.0179408  63.6010000
  57.0409408 122.9349408  63.3370000  45.8699408 127.0169408  60.6600000
  45.2029408 126.8519408  61.3270000  46.4569408 127.6569408  61.0610000
  55.9399408 125.4359408  74.7680000  56.1589408 125.8389408  73.9280000
  55.7629408 124.5199408  74.5560000  55.4509408 126.9699408  65.4990000
  54.8859408 126.2069408  65.3780000  55.7639408 127.1789408  64.6180000
  30.4629408 142.8909408  73.2580000  30.2129408 141.9829408  73.0880000
  31.3599408 142.8359408  73.5870000  48.4659408 143.8039408  69.1880000
  48.8379408 144.6159408  68.8460000  48.9149408 143.1109408  68.7040000
  46.7079408 127.0059408  63.8860000  47.1969408 127.5149408  63.2390000
  46.7849408 126.0999408  63.5860000  35.6159408 123.9159408  77.9620000
  36.1299408 123.4149408  78.5940000  35.1099408 123.2559408  77.4870000
  55.2969408 125.6169408  79.7390000  56.1719408 125.2819408  79.5430000
  54.9219408 125.8239408  78.8830000  40.5079408 127.1349408  80.9140000
  41.3479408 126.7929408  80.6060000  40.6289408 127.2549408  81.8560000
  35.4309408 128.9249408  73.3460000  34.5449408 128.8439408  73.6980000
  35.4069408 129.7229408  72.8170000  59.5329408 120.6999408  63.3760000
  60.1959408 120.7629408  62.6890000  59.1429408 119.8339408  63.2540000
  49.1209408 131.3209408  73.8360000  48.7309408 131.3989408  72.9650000
  48.7629408 132.0599408  74.3270000  53.4509408 136.6139408  77.9200000
  53.0099408 137.2459408  77.3520000  52.8429408 136.4799408  78.6470000
  31.2429408 145.3819408  71.0890000  31.8839408 144.7989408  70.6820000
  30.4409408 144.8619408  71.1370000  30.5589408 123.4369408  62.1060000
  30.9039408 123.9419408  61.3700000  29.6199408 123.3699408  61.9320000
  55.4529408 143.0009408  66.3470000  56.1639408 142.5919408  66.8410000
  55.8259408 143.1649408  65.4810000  49.8289408 132.1619408  64.8400000
  50.2879408 132.3219408  65.6640000  49.5549408 133.0299408  64.5450000
  55.5609408 131.1319408  75.4750000  55.1189408 130.5969408  76.1340000
  54.8589408 131.6419408  75.0700000  31.6959408 134.5629408  65.6540000
  31.0739408 134.5129408  64.9270000  31.7619408 133.6639408  65.9750000
  56.7429408 123.6139408  77.8620000  56.4659408 124.0829408  77.0750000
  56.0469408 122.9769408  78.0200000  51.6259408 139.4869408  61.2030000
  52.4039408 139.0829408  61.5860000  51.3859408 140.1789408  61.8190000
  59.2179408 143.7659408  65.8380000  59.3659408 144.3189408  65.0710000
  59.4309408 142.8809408  65.5410000  51.2669408 120.7559408  68.5830000
  51.3999408 121.0999408  69.4660000  50.5919408 120.0849408  68.6870000
  57.0209408 120.6149408  83.3560000  56.1119408 120.3729408  83.1770000
  57.4589408 119.7839408  83.5400000  57.0549408 140.3509408  73.5330000
  56.2059408 140.0659408  73.1960000  57.4329408 139.5649408  73.9270000
  53.3629408 125.0449408  71.8150000  53.7649408 125.8809408  71.5770000
  54.1039408 124.4649408  71.9930000  54.9759408 121.0289408  80.1130000
  54.6729408 121.3969408  79.2830000  54.4759408 121.4979408  80.7810000
  52.5319408 143.9129408  76.2690000  53.3199408 143.8259408  76.8050000
  52.8589408 144.0669408  75.3830000  56.3219408 127.4929408  83.9420000
  56.3019408 126.7529408  84.5480000  57.1049408 127.9849408  84.1900000
  30.1739408 131.8329408  71.6060000  30.4409408 131.6049408  72.4960000
  30.8999408 132.3529408  71.2630000  55.7369408 139.1459408  68.1800000
  54.8499408 139.1279408  68.5390000  56.1869408 138.4239408  68.6170000
  46.6539408 129.5689408  67.1000000  46.2859408 129.1019408  66.3490000
  47.5579408 129.2609408  67.1550000  48.3429408 145.7469408  66.0430000
  48.8659408 144.9999408  65.7510000  47.5969408 145.7659408  65.4440000
  34.7929408 145.8129408  65.2480000  34.3529408 146.6369408  65.4600000
  34.0799408 145.1949408  65.0880000  53.2419408 143.1659408  70.4920000
  52.9709408 143.7249408  69.7630000  52.5509408 142.5069408  70.5570000
  55.7379408 146.5139408  76.0000000  55.5399408 145.6189408  75.7260000
  54.8859408 146.8929408  76.2160000  30.0309408 126.3349408  67.2890000
  29.4529408 125.8939408  66.6650000  30.7089408 126.7369408  66.7450000
  35.4109408 121.6389408  74.1010000  36.3529408 121.5459408  73.9540000
  35.1199408 122.2449408  73.4200000  42.0409408 123.7889408  60.3090000
  41.4489408 124.5119408  60.1020000  42.7159408 123.8299408  59.6310000
  54.4599408 122.0869408  77.5660000  54.6979408 122.1839408  76.6440000
  53.9199408 121.2969408  77.5930000  38.5499408 124.3989408  79.4280000
  39.1569408 124.0959408  80.1040000  37.8149408 123.7869408  79.4750000
  51.2339408 121.7299408  71.0500000  51.0569408 121.7479408  71.9900000
  51.0979408 122.6329408  70.7630000  52.1169408 126.2239408  76.4610000
  51.5759408 126.8179408  76.9810000  51.6809408 126.1839408  75.6100000
  57.9949408 121.5439408  69.2960000  57.6689408 120.7739408  69.7610000
  57.5859408 121.4939408  68.4320000  34.1849408 139.2609408  75.5620000
  33.2749408 139.4589408  75.3410000  34.2369408 139.3929408  76.5080000
  51.5719408 136.0879408  79.4610000  51.2589408 136.5549408  80.2350000
  52.0279408 135.3219408  79.8100000  54.5889408 132.8039408  78.0590000
  55.3309408 132.2919408  77.7360000  54.9889408 133.5189408  78.5550000
  32.6959408 124.0899408  81.8710000  32.3059408 123.5869408  81.1560000
  32.9999408 124.8979408  81.4560000  59.8669408 142.4849408  83.7190000
  60.5199408 142.0109408  83.2050000  59.1229408 142.5889408  83.1250000
  52.9719408 149.7709408  66.6800000  52.3179408 150.1079408  67.2920000
  53.6439408 149.3789408  67.2390000  60.0319408 129.3559408  67.3470000
  59.0959408 129.2539408  67.5190000  60.1719408 128.9109408  66.5120000
  42.1399408 127.4559408  72.2220000  43.0799408 127.4309408  72.0430000
  41.9669408 126.6499408  72.7080000  52.2569408 132.3619408  71.4830000
  51.7519408 133.1539408  71.2990000  52.2079408 131.8529408  70.6740000
  57.9939408 128.9349408  78.7130000  58.8849408 128.7869408  79.0320000
  57.4419408 128.4079408  79.2910000  32.6369408 128.9269408  68.6340000
  33.0599408 129.1289408  69.4690000  31.7709408 129.3279408  68.7010000
  31.9669408 128.2519408  78.4270000  32.8179408 128.6559408  78.5950000
  31.4089408 128.5619408  79.1400000  57.5039408 125.9579408  72.6760000
  57.6349408 125.1329408  72.2080000  57.4329408 126.6169408  71.9850000
  36.0659408 123.5049408  63.3350000  35.7129408 124.3689408  63.5490000
  35.3759408 123.0859408  62.8200000  50.1629408 123.2489408  67.1740000
  50.7889408 122.6829408  67.6270000  49.4289408 123.3299408  67.7820000
  46.8479408 149.6619408  70.6200000  46.3209408 149.0759408  71.1630000
  46.2789408 149.8849408  69.8840000  35.8869408 130.2809408  65.3640000
  35.6359408 130.8369408  66.1020000  35.8729408 130.8659408  64.6070000
  52.0509408 147.8479408  81.3780000  52.2919408 147.3129408  80.6220000
  52.4079408 148.7149408  81.1820000  56.0049408 148.4509408  80.5770000
  55.3879408 147.8689408  80.1320000  55.6789408 149.3319408  80.3920000
  45.9519408 135.9449408  60.6750000  45.0699408 135.6069408  60.8280000
  46.3909408 135.2529408  60.1800000  52.1649408 127.7679408  68.6350000
  53.0789408 127.4839408  68.6030000  52.1279408 128.5239408  68.0490000
  54.3869408 130.8979408  67.2380000  54.6949408 131.3449408  68.0260000
  55.0989408 131.0059408  66.6070000  50.4669408 147.5979408  76.5020000
  50.0149408 148.4079408  76.7400000  49.9129408 146.9009408  76.8520000
  47.1799408 144.4859408  71.5940000  47.1339408 144.0919408  70.7230000
  47.8769408 145.1389408  71.5260000  57.1109408 127.9229408  70.7590000
  56.6699408 128.6599408  71.1820000  57.2859408 128.2279408  69.8680000
  54.4309408 128.2329408  60.1660000  54.9999408 128.8329408  59.6840000
  54.9499408 127.9689408  60.9260000  57.6649408 137.8339408  80.4340000
  57.0099408 137.9209408  81.1270000  57.7929408 138.7259408  80.1110000
  50.4459408 125.7249408  65.9510000  50.6899408 124.9389408  66.4390000
  51.2809408 126.0999408  65.6680000  34.0989408 137.2339408  80.9040000
  33.5579408 137.6299408  80.2210000  34.7849408 137.8809408  81.0720000
  53.0409408 145.6989408  67.7480000  52.2169408 146.1149408  67.4950000
  53.0589408 144.8799408  67.2530000  45.0709408 123.1099408  71.9730000
  45.9309408 122.7019408  71.8700000  44.5769408 122.4959408  72.5170000
  31.2549408 126.8109408  74.1630000  30.3669408 126.7379408  74.5100000
  31.5479408 127.6809408  74.4330000  31.2039408 138.3319408  68.1590000
  31.7869408 138.4599408  68.9080000  30.4139408 137.9419408  68.5330000
  40.8509408 138.0429408  80.5640000  41.5169408 137.8769408  79.8970000
  40.6929408 137.1879408  80.9640000  55.3289408 133.5029408  71.5810000
  55.0329408 134.2309408  72.1270000  56.1189408 133.1829408  72.0170000
  57.1119408 147.8559408  74.3000000  56.6299408 147.3489408  74.9530000
  58.0099408 147.8809408  74.6300000  54.7879408 122.1149408  65.8990000
  54.1839408 121.3719408  65.9120000  55.6579408 121.7159408  65.9040000
  49.4179408 135.1679408  76.0930000  50.2329408 134.6729408  76.0060000
  49.6999408 136.0539408  76.3210000  57.7659408 133.5989408  63.8470000
  57.7389408 133.8419408  64.7720000  57.9009408 134.4269408  63.3850000
  35.1689408 134.5189408  76.3780000  35.8409408 134.4369408  77.0540000
  34.4199408 134.9079408  76.8290000  54.5049408 123.7859408  68.3370000
  54.6659408 123.1259408  67.6630000  55.3689408 123.9629408  68.7110000
  57.8919408 135.9599408  61.8140000  57.0629408 135.4949408  61.6950000
  58.2699408 136.0039408  60.9360000  51.4209408 125.9589408  73.7260000
  50.7449408 126.4539408  73.2630000  52.0389408 125.6999408  73.0420000
  34.4059408 130.8699408  61.0480000  33.6999408 131.4429408  61.3470000
  35.1239408 131.0339408  61.6600000  47.9489408 137.1749408  71.2960000
  47.9059408 136.2389408  71.0990000  48.8179408 137.2979408  71.6800000
  55.4809408 131.9639408  69.4060000  55.1199408 132.5119408  70.1030000
  56.2799408 131.5939408  69.7810000  57.2379408 124.9699408  68.0610000
  57.3909408 125.8909408  68.2740000  57.5609408 124.8749408  67.1650000
  46.7859408 138.4209408  61.6810000  46.7219408 137.5299408  61.3370000
  47.4129408 138.8559408  61.1040000  52.8489408 133.5719408  79.9600000
  53.5609408 133.2709408  79.3950000  52.1069408 133.0129408  79.7290000
  53.2589408 120.4689408  74.2250000  53.7039408 119.7619408  73.7580000
  53.9489408 121.1049408  74.4120000  38.5139408 138.9249408  64.6940000
  38.4449408 137.9949408  64.9100000  37.8739408 139.0569408  63.9950000
  30.9149408 132.1979408  63.5130000  30.7669408 132.8599408  62.8380000
  30.2449408 131.5339408  63.3490000  46.2619408 125.6629408  71.8050000
  47.1559408 125.3529408  71.9450000  45.7269408 124.8699408  71.8260000
  55.2609408 122.5219408  75.1500000  56.1599408 122.1979408  75.2140000
  55.1129408 122.6349408  74.2110000  56.0369408 129.7699408  72.4210000
  56.3529408 129.1019408  73.0300000  55.0999408 129.8379408  72.6050000
  53.0209408 128.4339408  63.5050000  53.2149408 129.3699408  63.4500000
  53.4379408 128.1499408  64.3190000  48.3969408 121.7669408  64.5070000
  48.1719408 121.0319408  65.0770000  49.3529408 121.8069408  64.5340000
  59.4079408 140.4649408  72.4830000  58.5159408 140.4729408  72.8300000
  59.2959408 140.4509408  71.5330000  49.9099408 128.3669408  70.0660000
  49.9099408 129.2509408  69.6990000  50.6139408 127.9149408  69.6030000
  52.3429408 137.8229408  73.7280000  52.4789408 138.5569408  74.3260000
  51.4959408 137.9999408  73.3180000  48.5539408 138.9259408  84.6820000
  48.7939408 138.2999408  85.3660000  49.3529408 139.4279408  84.5250000
  30.9789408 131.7839408  66.4660000  30.8059408 131.5689408  65.5490000
  30.8379408 130.9619408  66.9360000  48.5449408 126.2349408  68.9460000
  48.6869408 126.3049408  68.0020000  48.8589408 127.0669408  69.2990000
  47.5829408 122.1169408  71.6990000  47.5359408 121.9249408  72.6360000
  47.4419408 121.2719408  71.2740000  53.0879408 126.0449408  62.2860000
  53.1179408 126.9629408  62.5550000  52.5769408 126.0479408  61.4770000
  49.4299408 149.0179408  60.8690000  50.3869408 149.0099408  60.8630000
  49.1899408 148.4979408  61.6360000  59.4029408 141.3029408  76.8030000
  59.1189408 142.1149408  76.3830000  60.2919408 141.4879408  77.1050000
  59.9999408 123.3119408  68.7350000  59.2879408 122.6869408  68.8720000
  59.6239408 124.1599408  68.9690000  37.9229408 120.9289408  67.0610000
  38.3859408 121.4039408  67.7510000  37.6119408 121.6119408  66.4670000
  56.0629408 126.2019408  62.8730000  56.7759408 126.4759408  62.2960000
  55.4759408 125.7009408  62.3070000  55.4119408 140.8149408  61.5320000
  55.4999408 140.9999408  60.5970000  56.2239408 140.3649408  61.7650000
  58.3659408 125.4669408  79.3010000  58.8039408 125.9929408  78.6320000
  58.0599408 124.6899408  78.8330000  50.9419408 124.3839408  77.7550000
  50.5819408 123.9059408  77.0080000  51.5239408 125.0359408  77.3640000
  59.4049408 129.7769408  61.2160000  59.7829408 129.6169408  60.3520000
  58.8879408 128.9919408  61.4010000  51.4199408 133.2069408  84.2540000
  51.6209408 132.3409408  84.6100000  51.2789408 133.0559408  83.3200000
  59.1759408 130.3779408  82.4850000  58.2839408 130.5879408  82.2080000
  59.0939408 130.1619408  83.4140000  57.5159408 131.6489408  78.8270000
  57.5849408 130.6959408  78.7670000  57.6049408 131.8379408  79.7610000
  58.1189408 133.0759408  83.9840000  58.7619408 132.6759408  84.5710000
  57.4529408 133.4369408  84.5690000  51.7639408 133.3609408  62.3840000
  51.7739408 133.7069408  61.4920000  50.9559408 132.8499408  62.4340000
  58.0309408 145.7699408  60.2010000  57.6519408 146.3839408  59.5710000
  58.7909408 146.2309408  60.5560000  32.9169408 130.2559408  82.9200000
  32.3259408 130.8239408  82.4250000  33.4999408 130.8599408  83.3800000
  51.1939408 124.9999408  84.4080000  50.3499408 125.2639408  84.7730000
  51.2559408 124.0639408  84.5980000  58.7599408 148.1839408  63.0480000
  58.8759408 147.2849408  63.3560000  59.4779408 148.3219408  62.4310000
  32.6489408 127.0719408  83.3300000  32.9159408 127.8839408  82.8980000
  32.1039408 126.6239408  82.6820000  52.4329408 144.4709408  60.8190000
  51.6569408 144.3989408  61.3750000  52.5059408 143.6149408  60.3970000
  57.0089408 127.7539408  80.9100000  57.1639408 127.5669408  81.8360000
  56.1749408 127.3249408  80.7160000  49.5569408 139.2589408  64.7920000
  49.8279408 138.5009408  64.2750000  49.5719408 139.9889408  64.1730000
  56.9399408 130.5709408  65.5480000  57.2969408 131.4359408  65.7460000
  57.5429408 130.2049408  64.9000000  52.1869408 127.3489408  83.2340000
  52.6329408 127.2299408  82.3960000  51.9849408 126.4599408  83.5270000
  53.0549408 146.8219408  75.9560000  52.1179408 146.8199408  76.1500000
  53.1779408 146.0819408  75.3610000  56.0829408 134.9759408  82.9120000
  56.8299408 134.5689408  82.4730000  56.1679408 134.7089408  83.8270000
  31.7139408 124.7479408  64.2270000  31.3929408 124.3309408  63.4270000
  31.0859408 124.4889408  64.9010000  56.7119408 148.8939408  61.2240000
  57.5319408 148.5429408  61.5710000  56.3319408 149.3829408  61.9540000
  54.2559408 143.5429408  78.3680000  54.2759408 142.7569408  78.9150000
  55.1489408 143.6239408  78.0320000  54.1759408 138.5089408  61.7660000
  54.5339408 139.3739408  61.5650000  54.8279408 138.1069408  62.3410000
  55.2449408 135.1359408  79.2390000  54.6809408 135.3399408  79.9860000
  55.0279408 135.8009408  78.5860000  57.8889408 122.9389408  60.7890000
  57.1389408 122.3659408  60.9500000  57.5709408 123.8159408  61.0000000
  47.5889408 125.9449408  81.8650000  47.9269408 125.0509408  81.9150000
  48.2399408 126.4199408  81.3480000  50.0679408 126.6019408  80.6770000
  50.4109408 125.7399408  80.4420000  50.8469408 127.1369408  80.8290000
  59.4139408 123.1659408  76.0720000  59.2369408 122.3849408  76.5970000
  58.9069408 123.8589408  76.4960000  47.8799408 127.6249408  84.1220000
  47.7579408 126.6759408  84.0920000  47.0159408 127.9709408  84.3480000
  54.0009408 124.7069408  65.0710000  53.8849408 124.5229408  64.1390000
  54.2479408 123.8649408  65.4530000  58.6979408 124.9809408  83.9730000
  59.2289408 125.6649408  84.3820000  59.2709408 124.2149408  83.9480000
  39.8899408 131.8059408  77.1790000  40.2009408 131.2239408  77.8720000
  40.1229408 131.3559408  76.3660000  32.2539408 135.9619408  84.7120000
  31.4929408 135.4689408  84.4070000  33.0069408 135.4519408  84.4130000
  50.0029408 129.2039408  83.4090000  50.8009408 128.6759408  83.4560000
  49.3039408 128.6049408  83.6730000  53.6059408 132.7209408  74.1930000
  53.3069408 132.6279408  73.2890000  53.8659408 133.6389408  74.2670000
  53.0969408 127.0939408  80.7320000  53.5719408 127.7899408  80.2780000
  53.5829408 126.2959408  80.5220000  51.2829408 124.2129408  70.2370000
  52.1709408 124.4309408  70.5200000  50.9569408 125.0169408  69.8310000
  35.2779408 131.5559408  67.5480000  34.8449408 130.9229408  68.1220000
  35.5749408 132.2489408  68.1370000  36.0519408 126.0389408  72.9900000
  36.7619408 125.9259408  72.3580000  35.9799408 126.9859408  73.1040000
  56.9689408 146.1229408  82.1750000  57.8909408 146.2139408  82.4190000
  56.8059408 146.8519408  81.5770000  30.5089408 129.7659408  73.8980000
  29.8269408 129.7809408  74.5700000  30.2249408 129.0889408  73.2830000
  52.0069408 133.9469408  76.1180000  52.6479408 133.3789408  75.6900000
  52.4899408 134.3509408  76.8390000  33.1369408 135.9089408  77.4420000
  33.2879408 136.7359408  77.8990000  32.3239408 136.0479408  76.9560000
  54.1139408 123.7159408  81.1230000  54.5879408 124.4759408  80.7840000
  54.5419408 123.5189408  81.9560000  43.7419408 126.4529408  75.6390000
  44.2449408 126.8479408  74.9270000  43.4279408 127.1979408  76.1520000
  33.9139408 134.3159408  80.0960000  33.3239408 135.0459408  80.2810000
  33.8699408 134.2069408  79.1460000  49.3529408 129.0949408  79.9650000
  48.9699408 129.8979408  80.3180000  49.1119408 128.4159408  80.5960000
  47.2159408 122.2419408  74.2630000  47.4569408 121.6839408  75.0030000
  46.9959408 123.0849408  74.6600000  36.1759408 123.6459408  83.8610000
  37.0319408 123.4339408  84.2340000  35.6269408 123.8449408  84.6190000
  30.6509408 134.1239408  83.5250000  29.7119408 133.9479408  83.5810000
  30.9809408 133.4709408  82.9080000  32.0539408 132.5049408  81.6720000
  32.7779408 133.0489408  81.3630000  31.3189408 132.7389408  81.1060000
  57.4739408 128.2959408  67.3770000  57.0789408 129.0559408  66.9490000
  57.4529408 127.6089408  66.7110000  34.6389408 128.2059408  60.3610000
  34.5499408 129.1419408  60.5400000  35.5799408 128.0399408  60.4160000
  33.5789408 125.2939408  74.7230000  34.2869408 125.7469408  74.2640000
  32.8469408 125.9109408  74.7040000  44.3679408 128.5949408  80.4910000
  44.4269408 129.5469408  80.5680000  44.3979408 128.4279408  79.5490000
  32.4339408 149.4479408  81.3220000  31.7669408 148.7629408  81.3040000
  32.1439408 150.0829408  80.6670000  49.6399408 137.0629408  81.6660000
  50.2749408 137.2579408  82.3550000  49.4069408 137.9179408  81.3040000
  57.1349408 132.3819408  81.4320000  56.3539408 131.8949408  81.6950000
  57.7049408 132.3559408  82.2000000  31.7099408 124.5589408  77.3620000
  31.2679408 124.1129408  76.6390000  31.0809408 125.2169408  77.6580000
  33.7859408 123.1389408  65.5410000  34.7399408 123.2159408  65.5740000
  33.5029408 123.8839408  65.0110000  52.3099408 130.3559408  81.7640000
  51.7209408 131.1059408  81.6740000  51.7629408 129.6659408  82.1410000
  58.6129408 140.5529408  80.3810000  59.2029408 140.8629408  81.0670000
  58.5069408 141.3039408  79.7970000  48.5159408 145.7009408  60.7170000
  48.6129408 146.6029408  61.0230000  49.1969408 145.5999408  60.0510000
  54.3199408 135.3179408  73.4330000  53.7379408 136.0469408  73.2200000
  54.8819408 135.6559408  74.1310000  52.5469408 135.5769408  64.2880000
  51.8889408 136.0879408  63.8160000  52.4899408 134.7009408  63.9070000
  49.5539408 120.0589408  77.2370000  49.8519408 120.3489408  76.3750000
  48.6799408 120.4369408  77.3290000  54.5779408 146.1839408  79.7680000
  55.3119408 145.7339408  79.3490000  53.8019408 145.8429408  79.3220000
  51.9709408 149.7309408  64.2900000  51.4919408 150.5529408  64.3860000
  52.2929408 149.5359408  65.1700000  49.7779408 143.9979408  73.5600000
  50.2779408 144.1409408  72.7560000  50.3799408 143.5269408  74.1360000
  46.2369408 122.5929408  67.0360000  46.4979408 121.7169408  66.7530000
  47.0569408 123.0199408  67.2820000  47.8549408 123.6489408  68.8230000
  48.0219408 124.5789408  68.9790000  47.6949408 123.2839408  69.6930000
  50.3289408 144.1079408  62.8240000  49.6049408 144.5969408  62.4350000
  50.2499408 144.2699408  63.7640000  51.6989408 120.0119408  79.4060000
  52.3109408 119.7979408  78.7010000  50.9559408 120.4209408  78.9620000
  57.1489408 141.4149408  68.1260000  57.0169408 141.9989408  68.8730000
  56.3659408 140.8649408  68.1090000  51.1139408 122.1109408  64.7390000
  51.1109408 122.6599408  65.5240000  51.5609408 122.6399408  64.0780000
  52.0079408 130.1399408  76.2200000  51.9829408 130.3189408  75.2790000
  52.8879408 129.7949408  76.3750000  46.6089408 138.0909408  73.3550000
  46.7289408 137.5009408  72.6110000  47.4469408 138.5439408  73.4390000
  57.8639408 137.4319408  69.3610000  57.7469408 137.2979408  70.3010000
  58.3079408 138.2779408  69.2930000  31.0329408 145.6039408  73.9710000
  30.2089408 145.2399408  74.2930000  31.2309408 145.0919408  73.1870000
  31.9339408 149.6879408  78.6420000  32.2469408 148.7839408  78.6550000
  31.5109408 149.7829408  77.7880000  31.1559408 138.4609408  80.0400000
  30.2709408 138.7809408  79.8660000  31.0349408 137.5459408  80.2950000
  32.0799408 148.3339408  63.5080000  31.6479408 148.7749408  62.7770000
  32.4669408 149.0439408  64.0210000  47.4589408 139.6149408  66.9330000
  46.5709408 139.2699408  67.0270000  47.7209408 139.3639408  66.0470000
  56.6749408 137.5639408  73.5590000  56.2789408 137.7839408  74.4030000
  56.8119408 136.6169408  73.5990000  49.9319408 143.5469408  65.4520000
  49.4589408 142.7149408  65.4690000  50.8459408 143.3059408  65.6030000
  53.0439408 141.6259408  73.4910000  52.5689408 141.6099408  72.6600000
  53.9519408 141.4399408  73.2520000  51.5259408 147.0239408  63.9340000
  51.8329408 146.7029408  63.0860000  51.8009408 147.9409408  63.9570000
  52.5659408 143.1829408  66.2490000  52.5139408 142.3989408  66.7960000
  53.4839408 143.2299408  65.9820000  32.7359408 143.2419408  81.7040000
  32.8889408 143.6109408  80.8350000  32.5469408 143.9999408  82.2570000
  55.2289408 123.2469408  72.4100000  54.8559408 122.6399408  71.7710000
  56.0849408 123.4789408  72.0500000  33.0529408 146.7679408  75.5720000
  32.4119408 146.2939408  75.0430000  33.1159408 147.6289408  75.1590000
  54.1119408 141.8259408  63.7350000  54.7569408 142.4489408  64.0690000
  54.4369408 141.5849408  62.8680000  55.3229408 136.5199408  63.7300000
  55.4299408 135.8639408  63.0410000  54.4889408 136.2979408  64.1450000
  55.6729408 140.8899408  83.2500000  55.9379408 141.6929408  82.8020000
  55.0279408 140.4909408  82.6670000  58.0719408 135.0429408  74.1250000
  58.3279408 134.1539408  73.8810000  58.7059408 135.6059408  73.6790000
  51.4969408 137.6769408  68.9910000  50.6869408 137.9649408  69.4120000
  51.2069408 137.1699408  68.2330000  51.3089408 141.2979408  70.9070000
  50.3719408 141.3809408  71.0840000  51.3559408 140.9219408  70.0280000
  52.7679408 139.3119408  77.3790000  52.3009408 140.0629408  77.0110000
  53.4259408 139.6989408  77.9570000  49.7129408 141.5399408  67.5910000
  49.1179408 140.8719408  67.2500000  50.5109408 141.0599408  67.8100000
  53.7039408 137.7479408  70.5130000  54.1529408 136.9339408  70.2860000
  52.9529408 137.7799408  69.9200000  57.4709408 145.8359408  66.5070000
  57.7579408 144.9329408  66.6370000  57.3959408 145.9299408  65.5570000
  57.1539408 145.2229408  78.8610000  57.2309408 144.5909408  78.1470000
  57.9429408 145.7599408  78.7930000  58.9979408 135.2499408  77.3840000
  58.6679408 135.0439408  78.2580000  58.5579408 134.6249408  76.8080000
  47.0249408 142.7099408  77.6690000  46.8809408 142.0149408  77.0260000
  46.7759408 143.5139408  77.2140000  55.5159408 122.1409408  62.2740000
  54.6969408 122.6339408  62.2290000  55.2789408 121.3189408  62.7030000
  57.8379408 136.4779408  64.9610000  57.1649408 136.4449408  64.2810000
  58.2269408 137.3489408  64.8720000  48.1619408 131.4479408  78.1310000
  48.1129408 131.6889408  79.0560000  49.0279408 131.7449408  77.8520000
  41.7949408 124.1809408  75.4660000  41.0579408 124.3869408  76.0420000
  42.4969408 124.7619408  75.7580000  54.6279408 149.7129408  63.2650000
  53.6809408 149.5999408  63.3410000  54.9819408 149.3039408  64.0550000
  54.1549408 148.4689408  68.6710000  54.9869408 147.9959408  68.6860000
  53.5239408 147.8559408  69.0480000  57.6299408 148.3429408  67.5860000
  57.5669408 147.3909408  67.5050000  57.5549408 148.5079408  68.5260000
  56.7179408 143.2369408  77.1170000  57.0469408 143.5299408  76.2670000
  56.4409408 142.3329408  76.9690000  58.6429408 143.4169408  62.1320000
  59.5469408 143.7219408  62.2000000  58.2299408 144.0239408  61.5180000
  48.1019408 149.3339408  73.8490000  48.8249408 149.9569408  73.9170000
  48.5209408 148.5029408  73.6270000  30.8829408 135.8929408  80.9960000
  31.0199408 135.6469408  81.9110000  30.0429408 135.4959408  80.7640000
  59.7119408 147.0349408  78.1520000  59.5509408 147.4989408  77.3300000
  59.2639408 147.5589408  78.8150000  37.1339408 143.6299408  77.5170000
  36.9599408 144.4419408  77.0430000  37.4829408 143.0339408  76.8540000
  34.8129408 140.6049408  80.3340000  34.8989408 141.5329408  80.5520000
  34.8869408 140.1529408  81.1740000  55.3029408 146.0099408  71.7730000
  55.0519408 145.5969408  70.9470000  54.6769408 146.7259408  71.8830000
  45.4609408 143.4619408  63.0360000  45.9439408 143.2799408  62.2300000
  45.3659408 142.6069408  63.4560000  43.5109408 147.9189408  75.3630000
  44.4469408 147.8499408  75.5500000  43.2639408 147.0499408  75.0470000
  55.1669408 145.1589408  61.8110000  54.2559408 144.8679408  61.8270000
  55.3879408 145.2049408  60.8810000  51.1539408 147.1659408  66.5480000
  51.4189408 146.9389408  65.6570000  51.5359408 148.0299408  66.7000000
  46.0469408 124.5639408  75.7710000  46.0809408 124.5099408  76.7260000
  45.4529408 125.2939408  75.5940000  32.8799408 147.4629408  72.2670000
  32.0239408 147.0379408  72.2150000  33.2679408 147.3299408  71.4030000
  58.6919408 139.2009408  63.8620000  59.5599408 138.8229408  63.7170000
  58.1619408 138.8679408  63.1380000  30.1709408 145.8719408  63.6420000
  30.6029408 145.3299408  62.9810000  30.8439408 146.4929408  63.9200000
  51.9069408 140.2649408  68.2860000  51.7919408 139.3209408  68.3890000
  52.4119408 140.3589408  67.4790000  50.8209408 145.7819408  71.5460000
  50.6039408 145.9449408  70.6280000  50.7959408 146.6459408  71.9560000
  57.3569408 121.1799408  66.2670000  57.6309408 121.6629408  65.4870000
  58.0139408 120.4909408  66.3660000  48.4929408 140.8929408  71.3400000
  48.2899408 140.2629408  70.6490000  47.8709408 141.6069408  71.2050000
  57.5929408 148.9229408  70.4380000  57.4519408 149.3709408  71.2720000
  58.5019408 148.6269408  70.4740000  39.8979408 148.3239408  77.5680000
  40.5479408 147.6229408  77.5210000  39.0609408 147.8869408  77.4100000
  30.6229408 145.0849408  79.8260000  31.5509408 144.8679408  79.9130000
  30.5909408 145.7159408  79.1080000  59.5049408 129.6089408  63.9390000
  59.2369408 129.4409408  63.0360000  60.3389408 129.1489408  64.0320000
  54.9399408 148.5519408  72.8940000  55.6679408 148.0659408  73.2810000
  55.3499408 149.3119408  72.4820000  30.9209408 149.9589408  69.9480000
  31.4189408 149.3979408  69.3520000  30.0779408 150.0829408  69.5120000
  30.1289408 120.2789408  66.1440000  30.1339408 120.2069408  65.1890000
  30.6739408 119.5509408  66.4420000  50.1059408 146.3139408  68.9570000
  50.3829408 146.3689408  68.0430000  49.8789408 147.2129408  69.1940000
  47.8029408 121.4979408  62.0150000  47.8179408 121.3079408  62.9530000
  47.9959408 120.6579408  61.5970000  51.2849408 141.4409408  63.2030000
  52.1909408 141.6019408  63.4660000  50.9289408 142.3109408  63.0260000
  54.8339408 138.1349408  75.5300000  55.1179408 137.2749408  75.8380000
  54.2629408 138.4619408  76.2250000  55.9399408 143.0769408  70.1740000
  55.0409408 142.8989408  70.4490000  55.8779408 143.8789408  69.6550000
  30.5509408 143.0329408  68.3860000  30.1859408 143.4379408  67.6000000
  29.8569408 143.1109408  69.0410000  49.0939408 145.2559408  77.6310000
  48.8449408 145.5209408  78.5160000  48.5189408 144.5169408  77.4310000
  54.6889408 146.4959408  83.9890000  55.4609408 146.4079408  83.4300000
  54.0209408 145.9579408  83.5630000  49.7889408 147.3129408  83.2930000
  50.5389408 147.1429408  82.7230000  49.6029408 148.2449408  83.1720000
  56.0789408 148.6559408  65.3270000  56.5179408 148.9459408  66.1270000
  56.5309408 147.8469408  65.0860000  51.9989408 147.5469408  61.0180000
  52.9239408 147.6119408  60.7810000  51.7279408 146.6889408  60.6910000
  47.6129408 140.7449408  63.2240000  47.4149408 139.8939408  62.8320000
  47.7729408 141.3209408  62.4770000  58.7029408 143.2359408  80.3090000
  59.5569408 143.6369408  80.1500000  58.0819408 143.8059408  79.8540000
  49.1839408 142.3919408  79.3730000  48.8759408 142.0519408  80.2130000
  48.3959408 142.4469408  78.8330000  52.4529408 142.8319408  84.3870000
  53.2899408 143.2969408  84.4070000  51.9209408 143.3219408  83.7600000
  59.3329408 140.1069408  69.6110000  60.1389408 140.5079408  69.2850000
  58.7129408 140.1949408  68.8870000  59.7389408 121.2499408  82.7270000
  59.9719408 120.5979408  82.0660000  58.7969408 121.1349408  82.8560000
  56.4519408 138.2429408  83.9800000  56.5979408 139.0739408  83.5290000
  55.5169408 138.0689408  83.8690000  32.8429408 145.7119408  83.1490000
  33.7689408 145.4969408  83.0340000  32.8479408 146.5679408  83.5780000
  58.0669408 135.0089408  80.1910000  58.0739408 135.9439408  79.9830000
  57.1889408 134.8459408  80.5340000  59.9059408 148.0329408  81.8660000
  59.3759408 148.3819408  82.5830000  60.0419408 147.1129408  82.0930000
  50.8229408 140.4389408  84.5460000  51.4419408 141.1659408  84.6110000
  50.8099408 140.2179408  83.6140000  33.7959408 122.6399408  61.5360000
  33.1589408 123.0979408  60.9870000  33.2689408 122.0539408  62.0780000
  54.2699408 149.2149408  84.6630000  54.2869408 148.9489408  85.5820000
  54.4699408 148.4149408  84.1780000  50.7379408 123.9019408  80.2470000
  50.8629408 123.9519408  79.3000000  51.6089408 124.0529408  80.6130000
  59.0199408 148.8129408  84.3330000  59.8619408 149.1639408  84.6250000
  58.8459408 148.0819408  84.9260000  56.1579408 146.4039408  63.9090000
  55.6669408 147.2129408  64.0520000  55.8099408 146.0549408  63.0890000
  47.0399408 148.4119408  84.8180000  47.5809408 148.5059408  85.6020000
  47.1749408 147.5059408  84.5410000  53.6199408 144.9529408  82.0760000
  52.8519408 144.5989408  81.6270000  54.1499408 145.3379408  81.3780000
  51.2529408 143.5169408  80.7880000  50.5179408 143.0819408  80.3570000
  50.8559408 143.9929408  81.5170000  33.1729408 149.6979408  83.8650000
  32.8949408 149.4999408  82.9710000  33.6089408 150.5479408  83.7990000
  54.4219408 129.4159408  80.1160000  55.2529408 129.6309408  80.5400000
  53.7539408 129.7569408  80.7110000  32.7039408 141.1609408  60.5350000
  31.8629408 141.6189408  60.5440000  32.8899408 141.0209408  59.6060000
  48.5739408 146.5729408  79.9790000  49.3969408 147.0059408  80.2050000
  47.9349408 146.9379408  80.5900000  53.9579408 121.6669408  83.3620000
  53.0839408 121.9459408  83.6370000  54.0009408 120.7409408  83.6010000
  53.5929408 140.4459408  66.1030000  54.4549408 140.0469408  66.2220000
  53.6239408 140.8299408  65.2270000  51.0189408 141.9559408  77.3460000
  50.6409408 142.0609408  78.2200000  51.4569408 142.7889408  77.1720000
  59.3579408 126.4659408  81.7420000  58.9689408 126.1709408  80.9190000
  59.0259408 125.8529408  82.3980000  35.0389408 140.2599408  83.3180000
  35.4329408 140.8059408  83.9980000  34.2329408 139.9279408  83.7140000
  52.3159408 120.6029408  60.0200000  52.8489408 120.3259408  60.7650000
  52.9519408 120.8169408  59.3370000  32.0639408 122.4419408  79.6400000
  32.0359408 123.1009408  78.9460000  31.3919408 121.8059408  79.3950000
  46.0279408 149.2599408  78.5900000  45.0909408 149.1729408  78.4130000
  46.1359408 148.9249408  79.4800000  50.3859408 144.2079408  83.2040000
  50.0829408 145.1069408  83.3300000  49.8389408 143.6859408  83.7910000
  30.8689408 126.2169408  60.9050000  31.1979408 126.6709408  60.1290000
  31.6129408 126.1979408  61.5060000  40.0009408 146.2329408  81.9690000
  40.8279408 145.7619408  82.0740000  40.2609408 147.1449408  81.8330000
  43.1139408 149.2469408  78.1040000  43.4209408 148.6579408  77.4150000
  42.3449408 149.6749408  77.7280000  64.1209408  43.6749408  13.7610000
  64.0209408  44.4239408  14.3480000  64.6659408  43.0579408  14.2490000
  79.4019408  47.0039408   3.4620000  79.3069408  46.1259408   3.8320000
  78.6369408  47.1089408   2.8970000  81.2879408  35.2629408  29.9310000
  80.5409408  34.9539408  30.4440000  80.9199408  35.9259408  29.3470000
  66.9639408  57.2739408   4.1330000  66.2589408  56.7169408   4.4630000
  66.9889408  58.0129408   4.7410000  81.1249408  31.1489408  21.7350000
  80.9649408  30.2999408  21.3230000  81.6349408  31.6379408  21.0890000
  66.7109408  48.7099408  21.4700000  66.3839408  49.3649408  22.0880000
  67.6529408  48.8729408  21.4250000  71.8849408  41.9679408  12.0810000
  71.2899408  41.2449408  12.2800000  72.7569408  41.5759408  12.1090000
  65.8789408  36.9689408   8.7010000  65.4139408  36.1719408   8.4480000
  65.9029408  37.4959408   7.9020000  75.1049408  47.8279408  15.6050000
  74.2939408  47.6459408  15.1300000  75.7899408  47.7719408  14.9380000
  60.6359408  44.0729408   8.5360000  59.8129408  44.3929408   8.1640000
  60.9089408  43.3719408   7.9450000  78.8559408  48.6129408   9.2840000
  78.4689408  48.1719408  10.0410000  78.1489408  49.1559408   8.9360000
  69.0639408  38.6819408  17.8260000  68.4579408  38.2489408  18.4280000
  69.3939408  37.9759408  17.2700000  71.2259408  41.3479408   5.7040000
  70.6419408  41.7979408   6.3140000  71.6789408  40.6969408   6.2400000
  77.4669408  45.2269408  17.9080000  77.9479408  45.1439408  18.7320000
  78.1319408  45.1079408  17.2300000  82.0799408  39.5039408   6.3360000
  81.9909408  39.7379408   5.4120000  82.7389408  40.1109408   6.6740000
  65.6149408  43.6859408   8.9500000  65.7649408  43.7169408   9.8950000
  64.7539408  44.0859408   8.8300000  89.3079408  48.9599408  15.2020000
  89.6479408  49.5329408  15.8900000  89.8979408  49.0979408  14.4610000
  62.5329408  37.1629408  28.8470000  63.2739408  37.5749408  29.2930000
  62.8629408  36.9599408  27.9720000  72.9309408  55.5519408  14.1980000
  73.8639408  55.3599408  14.1090000  72.5239408  55.1209408  13.4470000
  88.0369408  35.5629408   5.5490000  87.0969408  35.6829408   5.4130000
  88.2159408  34.6789408   5.2300000  78.3629408  51.3589408   0.6810000
  77.7089408  52.0489408   0.5670000  78.2789408  50.8169408  -0.1030000
  70.6849408  45.9839408   6.6650000  71.1339408  46.8249408   6.7490000
  69.8769408  46.0929408   7.1670000  78.4319408  34.8569408  25.0460000
  78.1149408  34.5139408  25.8810000  78.3719408  34.1159408  24.4430000
  88.7999408  39.9389408  15.7730000  87.8609408  39.9999408  15.5990000
  88.8569408  39.5959408  16.6650000  62.3889408  50.7699408   3.8460000
  63.1819408  51.3059408   3.8470000  62.6729408  49.9199408   4.1820000
  77.9779408  44.4559408  10.6650000  77.2519408  44.3639408  10.0480000
  77.7039408  43.9559408  11.4340000  69.6549408  54.0029408  30.1860000
  69.0479408  54.5939408  29.7410000  70.5229408  54.3469408  29.9750000
  73.5299408  44.6779408   0.5350000  72.9009408  43.9769408   0.7060000
  73.0779408  45.2629408  -0.0730000  76.9329408  52.0279408  13.3670000
  77.2779408  52.9039408  13.1980000  77.6629408  51.4399408  13.1730000
  64.4319408  58.7859408  26.2340000  64.8979408  58.1089408  25.7430000
  63.7839408  59.1269408  25.6170000  71.7599408  53.1179408   8.5430000
  71.6899408  53.8819408   7.9720000  72.0759408  52.4179408   7.9710000
  74.5309408  56.0489408   1.8910000  75.1549408  56.0429408   1.1650000
  74.9719408  55.5639408   2.5890000  61.5889408  37.8679408   5.1380000
  61.9129408  37.0799408   4.7030000  62.3749408  38.2939408   5.4810000
  64.3779408  31.6949408  16.6380000  63.4469408  31.8319408  16.4640000
  64.7679408  31.5709408  15.7730000  76.9779408  44.3809408  28.3850000
  77.8199408  43.9829408  28.6060000  77.1409408  44.8459408  27.5640000
  71.0189408  32.1809408  18.1460000  70.7569408  33.1019408  18.1390000
  71.6919408  32.1279408  18.8240000  75.1549408  30.6799408   8.8720000
  74.7649408  31.4279408   8.4200000  75.0899408  29.9599408   8.2450000
  75.4189408  44.0349408  13.0950000  74.8099408  43.9809408  13.8320000
  74.8679408  44.2559408  12.3440000  72.2769408  39.0759408  26.9600000
  71.8759408  39.8269408  26.5240000  72.9859408  39.4519408  27.4820000
  88.5349408  45.5709408   7.6430000  88.4489408  46.1489408   6.8850000
  88.1879408  46.0809408   8.3750000  68.3539408  36.3839408   3.5020000
  69.0179408  36.9059408   3.0520000  67.9879408  36.9769408   4.1590000
  84.3849408  39.4109408  17.3650000  84.7209408  38.5179408  17.2950000
  84.2909408  39.5589408  18.3060000  67.7939408  43.7699408   7.0920000
  67.1589408  43.5089408   7.7590000  68.3649408  43.0079408   6.9930000
  69.0859408  32.8069408  12.3010000  69.2659408  33.2629408  11.4790000
  69.7729408  33.1059408  12.8980000  75.8509408  43.9929408   9.0110000
  75.1649408  44.5659408   8.6690000  75.4019408  43.1709408   9.2080000
  67.6489408  47.3009408  12.5020000  67.1329408  47.8939408  13.0490000
  67.6139408  46.4609408  12.9600000  82.4549408  33.6049408   2.6640000
  81.6819408  33.5749408   2.1000000  82.7979408  34.4919408   2.5530000
  81.2289408  50.5009408  14.9470000  80.8759408  51.0379408  15.6570000
  81.9479408  51.0209408  14.5870000  67.2079408  38.2029408  29.8520000
  67.3599408  38.7419408  30.6280000  68.0649408  38.1409408  29.4310000
  70.4099408  55.8839408  26.7950000  70.4019408  56.2829408  25.9250000
  69.6159408  56.2129408  27.2170000  71.1919408  56.2969408   1.5580000
  71.2509408  57.2469408   1.6600000  71.6389408  55.9449408   2.3270000
  64.6869408  33.6109408  12.3470000  63.8339408  33.9499408  12.0730000
  65.2309408  34.3909408  12.4540000  73.1469408  42.3189408  27.0580000
  73.5739408  42.0469408  26.2450000  73.8619408  42.4039408  27.6880000
  71.3659408  50.8169408  12.9800000  71.3449408  51.5859408  12.4090000
  72.2869408  50.5579408  12.9990000  75.5709408  34.5019408  23.2080000
  76.1229408  35.1429408  22.7600000  75.2669408  33.9189408  22.5130000
  74.5329408  49.5259408   7.8070000  74.0209408  48.9609408   8.3850000
  73.9069408  50.1799408   7.4950000  64.9169408  44.0799408   6.0540000
  65.2429408  43.2809408   6.4690000  64.3959408  44.5079408   6.7330000
  71.9419408  34.9309408  18.4310000  72.8109408  35.3169408  18.3240000
  71.7659408  34.9919408  19.3700000  62.9999408  53.7209408   4.9930000
  62.5599408  53.1309408   5.6050000  63.7909408  53.2499408   4.7310000
  69.3909408  35.9979408  13.5600000  68.4679408  35.8209408  13.7410000
  69.5449408  35.6099408  12.6990000  66.4589408  49.0469408  14.2110000
  65.7969408  48.9559408  14.8960000  67.0899408  49.6709408  14.5690000
  72.7269408  34.7419408  13.0350000  73.5559408  34.2759408  12.9230000
  72.3699408  34.4009408  13.8560000  70.9189408  45.5149408  11.9010000
  70.0709408  45.1079408  11.7250000  70.7289408  46.4519408  11.9560000
  71.2779408  38.6519408   9.3500000  71.3409408  37.9429408   9.9910000
  70.6729408  39.2789408   9.7440000  67.3769408  58.8119408   1.6800000
  66.6809408  58.2869408   1.2850000  67.2869408  58.6599408   2.6210000
  75.6899408  48.6069408   4.5490000  75.8669408  48.6029408   3.6090000
  76.2479408  47.9129408   4.9010000  66.0069408  30.8799408   4.4630000
  66.8559408  30.4709408   4.2940000  66.1609408  31.8149408   4.3310000
  69.4119408  38.7209408   6.5640000  69.9009408  38.4549408   7.3430000
  70.0189408  39.2819408   6.0810000  70.9679408  48.3959408  15.9660000
  71.6029408  47.8829408  15.4660000  70.1389408  47.9329408  15.8490000
  69.0729408  40.0809408   9.9790000  69.3089408  40.3209408  10.8750000
  68.1399408  39.8699408  10.0250000  68.6629408  53.0849408   5.7270000
  69.1639408  52.7029408   6.4480000  69.3049408  53.2099408   5.0280000
  72.1909408  33.0269408   6.6490000  72.5829408  33.5069408   7.3790000
  72.8259408  32.3399408   6.4440000  62.7639408  40.3209408  15.9390000
  62.1979408  40.7929408  15.3280000  62.1579408  39.8679408  16.5260000
  63.7929408  35.9289408  18.5460000  64.5359408  35.3939408  18.2680000
  63.0419408  35.5539408  18.0850000  67.2649408  35.4869408  10.7700000
  66.6499408  36.0649408  10.3180000  67.6409408  34.9459408  10.0760000
  64.4899408  34.3149408   8.6110000  63.8189408  33.6769408   8.8510000
  64.7519408  34.0669408   7.7250000  78.2059408  41.1969408  11.0920000
  78.7899408  41.1579408  10.3350000  77.3289408  41.0939408  10.7250000
  72.6159408  32.7419408   2.6460000  72.2479408  33.1119408   1.8440000
  73.2749408  33.3789408   2.9240000  83.6789408  49.2509408  25.6230000
  82.9449408  48.9459408  26.1550000  84.0749408  49.9529408  26.1400000
  63.9959408  40.0319408  19.2360000  64.7059408  39.4889408  18.8920000
  64.1359408  40.8909408  18.8370000  73.6049408  39.6929408   3.1680000
  74.0819408  38.9459408   3.5280000  74.2209408  40.4239408   3.2310000
  70.6809408  41.2849408   0.4750000  70.9629408  41.9649408  -0.1370000
  70.5939408  41.7389408   1.3140000  66.1979408  58.7859408   7.3920000
  65.6229408  59.3219408   7.9370000  66.9389408  59.3569408   7.1890000
  75.6389408  36.6119408   8.9870000  75.6199408  36.6119408   9.9440000
  76.5409408  36.8459408   8.7660000  76.1629408  50.3279408   9.8410000
  75.8969408  50.1039408   8.9500000  75.7949408  49.6309408  10.3840000
  78.8369408  49.6889408  13.6890000  79.6529408  49.8079408  14.1740000
  79.0429408  49.9709408  12.7980000  67.3569408  44.9479408  14.1060000
  66.7409408  44.6609408  14.7800000  67.7119408  44.1349408  13.7450000
  82.1589408  41.9809408   8.6940000  82.2029408  42.9319408   8.6020000
  82.8179408  41.6489408   8.0840000  61.5759408  31.8369408  12.3790000
  61.6699408  31.3979408  11.5340000  61.7809408  32.7539408  12.1980000
  69.7979408  43.5629408  20.7020000  69.9119408  42.6129408  20.6900000
  70.2249408  43.8659408  19.9000000  65.8779408  41.1339408  28.3530000
  66.6849408  41.2089408  28.8610000  65.1959408  40.9759408  29.0060000
  72.6309408  43.1459408  14.3340000  72.2629408  43.3379408  13.4710000
  72.9819408  42.2589408  14.2530000  70.1429408  38.5439408   2.9460000
  70.7999408  38.6049408   2.2530000  70.5939408  38.8529408   3.7320000
  64.7069408  45.4199408  23.1280000  64.5639408  45.8999408  22.3120000
  64.9709408  46.0909408  23.7570000  62.9149408  46.4549408  14.3630000
  63.5279408  47.1049408  14.7050000  62.2449408  46.3749408  15.0420000
  69.9729408  31.6209408   9.1660000  70.8859408  31.7839408   8.9290000
  70.0159408  31.2549408  10.0490000  72.5159408  39.3919408   7.0440000
  72.9239408  38.9559408   6.2950000  72.6179408  38.7729408   7.7670000
  80.6819408  44.5549408  10.8580000  80.4699408  44.9719408  11.6930000
  79.8309408  44.3559408  10.4670000  78.2509408  40.8129408  27.5970000
  77.9399408  40.8729408  26.6940000  79.1989408  40.9269408  27.5330000
  65.0659408  42.1979408  18.1450000  65.8319408  41.7159408  17.8330000
  64.6889408  42.5859408  17.3550000  64.4699408  36.9909408  21.0950000
  64.3759408  36.7169408  20.1820000  64.4599408  37.9469408  21.0610000
  76.7989408  38.8369408  21.9130000  76.1259408  38.2629408  21.5470000
  77.3839408  38.2479408  22.3890000  77.3339408  31.3149408  17.3720000
  77.1459408  32.1649408  17.7700000  76.5919408  30.7639408  17.6200000
  64.3569408  54.6489408  13.1330000  65.1819408  55.0809408  12.9100000
  63.8739408  55.2999408  13.6410000  66.0859408  44.8579408  11.4430000
  65.4669408  45.3769408  10.9300000  65.9959408  45.1919408  12.3360000
  73.4409408  46.1729408   8.5040000  73.3789408  45.9409408   7.5780000
  72.7799408  46.8539408   8.6260000  68.5019408  34.1379408   8.6120000
  68.8629408  34.4539408   7.7840000  68.9809408  33.3279408   8.7890000
  69.2219408  59.9579408  19.5540000  69.1209408  59.3189408  18.8490000
  69.7729408  60.6449408  19.1780000  65.8979408  56.1729408  15.7840000
  64.9769408  56.4009408  15.6590000  66.2559408  56.1269408  14.8980000
  64.1719408  38.0399408   6.5580000  63.5999408  38.3309408   7.2680000
  64.3229408  38.8259408   6.0330000  80.9309408  38.1219408  17.8530000
  80.4899408  38.4399408  18.6410000  81.2959408  38.9089408  17.4480000
  63.5469408  59.1949408  14.3880000  63.4529408  58.7309408  13.5560000
  64.0779408  59.9629408  14.1760000  67.6459408  45.5889408   0.5610000
  68.1379408  44.9059408   1.0160000  68.1499408  46.3889408   0.7110000
  69.7719408  32.8839408   5.6410000  70.6209408  32.7349408   6.0590000
  69.7999408  32.3549408   4.8440000  69.0259408  46.3989408  15.6100000
  68.7289408  46.0099408  16.4320000  68.4029408  46.0809408  14.9560000
  84.9449408  40.7089408  22.4340000  84.4059408  40.1399408  22.9830000
  84.3479408  41.3989408  22.1430000  72.9919408  36.0789408  20.9050000
  73.2669408  36.9929408  20.8340000  73.4549408  35.7489408  21.6750000
  73.9919408  40.0189408  29.0960000  74.7189408  39.4589408  29.3680000
  74.3539408  40.5539408  28.3890000  75.0069408  37.1169408  28.0480000
  75.2319408  37.0419408  28.9750000  74.1499408  36.6969408  27.9740000
  79.7759408  47.0209408   6.7930000  79.6259408  47.7959408   6.2530000
  79.1299408  47.0889408   7.4960000  84.9269408  45.3199408   9.5870000
  85.3159408  44.5869408  10.0650000  85.3279408  45.2809408   8.7190000
  65.7419408  41.5499408  12.2860000  65.5099408  41.7689408  13.1890000
  66.5849408  41.9799408  12.1450000  89.0709408  32.3679408  13.5800000
  89.1899408  32.7229408  14.4610000  89.9599408  32.2269408  13.2550000
  75.3469408  37.8619408  13.5700000  75.5059408  37.1419408  12.9600000
  76.2199408  38.1279408  13.8590000  73.9419408  57.7469408  11.2050000
  73.6119408  57.6369408  12.0970000  73.2129408  58.1429408  10.7270000
  61.1999408  47.8119408  29.4490000  61.9049408  48.0979408  30.0290000
  61.6469408  47.3699408  28.7280000  62.4759408  43.4329408  11.5170000
  62.9669408  43.3179408  12.3310000  62.3929408  44.3819408  11.4200000
  64.0809408  40.9719408  10.1910000  63.3579408  41.5829408  10.3280000
  64.6869408  41.1519408  10.9110000  62.4699408  32.2689408   9.4860000
  61.9209408  33.0069408   9.2190000  61.8819408  31.5139408   9.4670000
  63.0199408  46.0899408  11.5960000  62.9749408  46.1599408  12.5500000
  63.1089408  46.9939408  11.2930000  72.5739408  44.1909408  16.7410000
  72.6879408  43.7449408  15.9010000  73.3929408  44.6689408  16.8720000
  75.7109408  42.0629408  28.0250000  76.5479408  41.6029408  28.0980000
  75.9129408  42.9669408  28.2670000  69.4949408  45.9309408   3.8740000
  69.7659408  45.7989408   4.7830000  69.9059408  46.7569408   3.6190000
  68.0449408  48.2839408  17.2700000  67.8129408  47.5769408  17.8720000
  68.2419408  47.8409408  16.4450000  68.0199408  31.0509408  14.0630000
  68.1869408  31.8039408  13.4960000  68.5849408  31.1939408  14.8240000
  72.3299408  53.4389408   4.0320000  71.5709408  52.9229408   3.7610000
  73.0749408  53.0059408   3.6160000  63.8559408  58.2669408   6.1100000
  63.5329408  59.1219408   5.8250000  64.7399408  58.4389408   6.4320000
  62.1229408  52.1309408  17.8600000  62.8419408  51.8089408  17.3180000
  62.3069408  53.0629408  17.9750000  78.9909408  38.3469408   5.9690000
  79.9089408  38.3779408   6.2400000  78.8449408  37.4349408   5.7200000
  65.8029408  46.0779408   4.3120000  66.5949408  45.6419408   3.9980000
  65.6179408  45.6609408   5.1540000  75.6349408  41.6509408   3.7230000
  76.4549408  41.1739408   3.8460000  75.4639408  42.0589408   4.5730000
  73.6209408  45.0579408  11.2560000  72.8359408  45.3699408  11.7060000
  73.5009408  45.3309408  10.3470000  66.7349408  40.4089408  16.9120000
  67.6709408  40.2119408  16.8740000  66.3309408  39.5979408  17.2210000
  69.1019408  49.7299408  22.1000000  69.8669408  49.3959408  21.6300000
  69.3469408  50.6199408  22.3550000  68.8879408  50.4159408   1.5990000
  68.2829408  49.7779408   1.9770000  68.7719408  51.2019408   2.1330000
  73.4439408  30.5639408   5.1250000  74.2609408  30.5429408   5.6220000
  73.7179408  30.5099408   4.2090000  68.1309408  47.3219408   9.6840000
  68.1119408  48.2399408   9.4110000  67.9969408  47.3509408  10.6310000
  71.8609408  38.8709408   0.8180000  71.4729408  39.7019408   0.5460000
  72.8049408  39.0259408   0.7920000  74.0549408  50.7059408  19.8650000
  73.1819408  50.5199408  20.2090000  74.1139408  50.1809408  19.0660000
  68.7819408  44.8269408  10.5120000  67.8989408  44.6719408  10.8490000
  68.7299408  45.6859408  10.0920000  85.7759408  45.5769408  15.5950000
  86.5949408  45.4519408  15.1160000  85.8309408  44.9639408  16.3280000
  74.7319408  35.0299408   6.7360000  75.2879408  34.2539408   6.6670000
  75.2679408  35.6689408   7.2060000  74.7409408  48.3739408  28.8420000
  75.0239408  49.2489408  28.5730000  75.2609408  48.1829408  29.6220000
  74.8019408  45.4929408  16.8610000  74.9129408  46.3009408  16.3600000
  75.6729408  45.3059408  17.2110000  67.7279408  43.2519408  26.7680000
  67.4999408  42.7349408  27.5410000  68.4259408  43.8349408  27.0650000
  78.8059408  48.6449408  29.5420000  79.1739408  47.7629408  29.4910000
  79.4979408  49.2139408  29.2050000  87.4529408  42.4809408  12.6510000
  86.9679408  41.6609408  12.7380000  88.3159408  42.2169408  12.3320000
  79.8039408  40.9529408   8.8190000  80.7069408  41.2619408   8.7410000
  79.2889408  41.5889408   8.3220000  73.6759408  42.0399408   8.3110000
  72.9579408  42.4469408   8.7970000  73.3909408  41.1369408   8.1740000
  64.4319408  29.9699408   9.1520000  64.9539408  30.3289408   9.8690000
  63.7079408  30.5879408   9.0490000  63.1979408  45.2869408   7.9950000
  62.5999408  45.4139408   7.2590000  62.7259408  44.7069408   8.5910000
  73.4919408  40.2479408  15.4210000  74.1179408  40.9619408  15.5410000
  74.0109408  39.5349408  15.0460000  88.8019408  36.7519408  15.1170000
  88.5949408  36.3399408  14.2790000  87.9779408  37.1509408  15.3980000
  66.3509408  42.5299408  20.8020000  65.7639408  42.6359408  20.0530000
  66.8079408  43.3679408  20.8690000  62.1939408  32.4329408  15.0200000
  61.9859408  32.0149408  14.1840000  62.7589408  33.1699408  14.7850000
  80.3539408  31.1919408  14.3940000  81.2449408  31.0649408  14.0680000
  80.3279408  32.1089408  14.6690000  72.9529408  48.1909408   4.7110000
  72.8259408  48.4779408   5.6150000  73.8859408  48.3269408   4.5450000
  71.2079408  43.2309408   9.6310000  71.4929408  43.1859408  10.5430000
  70.4689408  43.8389408   9.6400000  65.2889408  46.5969408   1.2440000
  66.1979408  46.4009408   1.4730000  65.0949408  46.0109408   0.5130000
  65.9609408  31.2959408  10.8390000  66.7089408  31.8909408  10.8830000
  65.2019408  31.8499408  11.0230000  74.0369408  39.3019408  10.0320000
  73.0859408  39.2279408   9.9500000  74.3769408  38.5189408   9.5980000
  73.8409408  45.9929408  19.9150000  73.3829408  45.6059408  19.1690000
  74.1529408  46.8389408  19.5910000  77.9259408  43.8949408  14.1400000
  76.9729408  43.9149408  14.2200000  78.2449408  44.1439408  15.0080000
  77.9639408  34.7779408   0.3340000  77.0519408  35.0459408   0.4500000
  78.1979408  34.3589408   1.1630000  66.0819408  41.7559408   3.1260000
  65.2619408  42.2489408   3.0890000  66.7199408  42.3779408   3.4750000
  80.7849408  41.9599408  17.6010000  81.3309408  41.2469408  17.2700000
  80.9109408  42.6709408  16.9720000  76.0959408  40.7469408   9.5820000
  75.3069408  40.3579408   9.9590000  76.3329408  40.1619408   8.8630000
  71.8799408  41.9409408   3.1400000  71.5959408  41.9629408   4.0530000
  72.2839408  41.0799408   3.0340000  70.6029408  48.1769408  12.3180000
  69.6709408  48.0139408  12.4610000  70.6839408  49.1309408  12.3230000
  76.8019408  50.5669408  15.9690000  77.5409408  49.9729408  15.8380000
  76.7199408  51.0359408  15.1380000  66.3819408  33.8779408   6.2780000
  66.8239408  34.1609408   7.0780000  66.7769408  34.4079408   5.5850000
  77.8219408  40.6709408  24.7140000  77.0509408  40.2079408  24.3860000
  78.5589408  40.2549408  24.2680000  80.9929408  46.8169408   1.4860000
  81.3499408  47.6909408   1.3270000  80.4049408  46.9299408   2.2320000
  87.1529408  43.0869408  16.5300000  87.5009408  42.5009408  17.2020000
  86.4709408  42.5749408  16.0950000  88.4819408  40.9349408   9.6410000
  88.8959408  41.1749408  10.4700000  88.9019408  41.4979408   8.9910000
  74.8989408  56.5689408   8.8670000  74.8359408  56.8249408   9.7880000
  74.8469408  55.6129408   8.8800000  66.4319408  39.2409408   9.6680000
  65.6539408  39.7959408   9.6110000  66.1929408  38.4429408   9.1960000
  77.9739408  40.1959408   4.3400000  78.5639408  40.9399408   4.4650000
  78.2259408  39.5729408   5.0210000  74.5639408  41.3319408  12.5050000
  75.3129408  41.9219408  12.4160000  74.8419408  40.5249408  12.0710000
  65.8949408  49.3489408  10.4970000  65.2319408  49.5939408  11.1420000
  65.4229408  48.8129408   9.8600000  70.5329408  34.8369408  11.0850000
  70.4469408  35.5079408  10.4070000  71.3799408  35.0149408  11.4930000
  68.3729408  53.4639408  13.1860000  69.1639408  53.9339408  12.9220000
  67.6539408  53.9979408  12.8490000  68.0019408  43.8009408   4.2870000
  68.6839408  44.4149408   4.0160000  67.9259408  43.9279408   5.2330000
  68.5919408  50.0079408  11.6570000  67.6919408  49.6829408  11.6220000
  68.5009408  50.9549408  11.7650000  68.5059408  59.5499408   4.7200000
  69.2599408  59.8159408   4.1930000  68.6619408  59.9459408   5.5770000
  64.0379408  57.2559408   9.9530000  64.9729408  57.0479408   9.9550000
  63.9999408  58.1869408   9.7350000  77.8569408  35.7969408   6.3200000
  78.7739408  35.6119408   6.1180000  77.3679408  35.4069408   5.5960000
  84.8209408  37.4299408   8.6100000  84.9309408  36.7309408   7.9650000
  85.4989408  38.0679408   8.3900000  69.6499408  41.8419408   7.8760000
  70.4039408  42.2779408   8.2730000  69.2779408  41.3139408   8.5820000
  77.8409408  41.3329408  21.0730000  77.5779408  40.4969408  21.4570000
  77.0239408  41.8229408  20.9800000  76.4069408  33.6289408  19.0480000
  77.1099408  34.2789408  19.0450000  76.1969408  33.5069408  19.9740000
  71.6449408  38.1269408  23.6070000  71.9199408  37.4939408  24.2710000
  71.9309408  38.9729408  23.9510000  78.3389408  38.6359408  17.0160000
  78.1949408  39.4509408  17.4970000  79.2549408  38.4159408  17.1850000
  67.8239408  39.7049408   1.9020000  68.6989408  39.3949408   2.1340000
  67.3699408  39.7939408   2.7400000  67.4669408  39.5539408  26.4890000
  67.0789408  40.1509408  27.1290000  67.8689408  40.1279408  25.8380000
  73.4879408  38.3599408  17.7820000  72.5719408  38.4729408  18.0380000
  73.7179408  39.1799408  17.3450000  87.1329408  43.4899408   6.5760000
  86.2129408  43.7239408   6.4540000  87.5309408  44.2739408   6.9540000
  65.3919408  39.8369408  21.5440000  64.4879408  40.0839408  21.7380000
  65.8819408  40.6569408  21.5990000  75.6989408  43.6459408  21.5090000
  74.9289408  44.2119408  21.4530000  75.7449408  43.3939408  22.4310000
  65.3759408  35.8509408   4.5400000  65.9379408  36.5929408   4.3170000
  65.1269408  36.0039408   5.4520000  81.4999408  50.8909408  21.6630000
  81.5299408  51.8449408  21.5890000  81.2169408  50.5929408  20.7990000
  76.1989408  42.7839408  24.3270000  76.9519408  42.3809408  24.7590000
  75.5079408  42.1229408  24.3830000  80.3079408  42.6819408  21.5200000
  79.5659408  42.7069408  22.1230000  80.0339408  43.2229408  20.7790000
  83.5869408  41.2759408   3.3410000  82.6949408  41.6219408   3.3230000
  84.1119408  41.9439408   2.9000000  67.8799408  56.0279408  23.7110000
  68.5289408  56.2299408  23.0370000  67.0729408  55.8609408  23.2240000
  78.4169408  44.7709408  20.7260000  78.8399408  45.1919408  21.4750000
  77.5249408  44.5919408  21.0240000  74.9759408  45.1649408  23.9550000
  75.6309408  45.7189408  23.5300000  75.4869408  44.4979408  24.4130000
  80.1269408  47.4139408  17.2570000  80.8569408  48.0169408  17.1180000
  80.2649408  47.0689408  18.1390000  77.7229408  39.0149408  14.5310000
  78.2079408  39.8399408  14.5330000  77.7629408  38.7109408  15.4380000
  77.0589408  34.2909408   3.6940000  77.3229408  33.4279408   4.0130000
  76.3329408  34.1129408   3.0950000  72.1429408  43.0499408  23.4810000
  72.7959408  43.1569408  22.7890000  71.8279408  43.9369408  23.6530000
  69.2999408  34.7489408  16.6790000  68.4779408  34.7659408  16.1890000
  69.0309408  34.7099408  17.5970000  70.2849408  39.8869408  12.5980000
  70.8409408  39.1149408  12.4900000  70.1829408  39.9779408  13.5460000
  71.5199408  40.6549408  24.6330000  71.7749408  41.4879408  24.2350000
  70.7539408  40.3749408  24.1320000  88.8309408  37.2719408   2.2880000
  88.8699408  36.9779408   3.1980000  89.5399408  36.7969408   1.8530000
  72.8319408  36.0959408  25.8560000  72.2219408  36.7999408  26.0740000
  72.2899408  35.4319408  25.4300000  82.0739408  39.3869408  29.4840000
  82.9599408  39.0269408  29.4310000  81.4999408  38.6319408  29.3590000
  77.8369408  35.8009408  18.3520000  78.7399408  35.6199408  18.0890000
  77.7859408  36.7559408  18.3950000  75.8959408  49.4069408  24.8660000
  75.5879408  48.8379408  25.5710000  76.8499408  49.3899408  24.9430000
  72.3099408  47.8379408  18.4750000  71.5999408  47.7869408  17.8350000
  72.9599408  48.4099408  18.0670000  81.5769408  40.0929408  13.5580000
  80.8019408  40.5149408  13.9290000  81.6999408  40.5189408  12.7100000
  63.0429408  42.8729408  25.6090000  63.5349408  42.7249408  24.8020000
  62.7319408  42.0039408  25.8640000  74.6799408  59.2389408  26.7010000
  75.3729408  59.7719408  26.3100000  74.3379408  59.7769408  27.4150000
  65.6739408  53.6199408   0.0820000  66.0949408  53.8689408   0.9050000
  66.3839408  53.2649408  -0.4520000  63.0279408  48.2679408   1.4330000
  63.1569408  49.2159408   1.4620000  63.8729408  47.9189408   1.1520000
  65.6639408  38.1749408  18.2520000  66.2629408  37.8789408  18.9380000
  65.1889408  37.3859408  17.9920000  65.9109408  36.2639408  23.1760000
  65.8639408  35.3079408  23.1610000  65.2579408  36.5469408  22.5370000
  63.5549408  42.7819408   3.2750000  62.7219408  42.4139408   3.5720000
  63.4619408  43.7249408   3.4110000  72.0799408  32.2879408  25.6550000
  71.8949408  32.3419408  26.5920000  71.6749408  33.0719408  25.2840000
  63.4729408  39.6029408  27.1470000  63.7089408  38.7169408  26.8730000
  64.0979408  39.8149408  27.8400000  80.1159408  33.8369408  15.0270000
  80.6079408  34.5009408  14.5440000  79.2639408  33.8059408  14.5920000
  69.1499408  59.6889408  22.5040000  69.9349408  60.2339408  22.5540000
  69.1679408  59.3219408  21.6200000  70.2899408  46.9219408  26.2360000
  70.6129408  46.3839408  25.5120000  70.5349408  47.8159408  25.9980000
  65.6959408  36.5609408  27.9650000  66.2729408  36.7839408  27.2350000
  66.2299408  36.7069408  28.7460000  69.0229408  40.0999408  23.4030000
  68.3649408  40.6929408  23.7660000  68.5369408  39.3039408  23.1870000
  62.6359408  39.1879408  12.6550000  62.1249408  39.8089408  13.1730000
  61.9839408  38.6069408  12.2650000  70.1199408  31.7629408   3.4120000
  69.5699408  31.8339408   2.6310000  70.9739408  32.0939408   3.1340000
  75.5569408  55.5499408  26.2860000  74.8219408  54.9969408  26.0220000
  76.0899408  55.6339408  25.4950000  67.1549408  37.1399408  25.5410000
  66.6739408  37.0259408  24.7220000  67.2739408  38.0859408  25.6200000
  74.3109408  40.8199408  25.0000000  73.4729408  40.6859408  24.5580000
  74.6099408  39.9379408  25.2200000  84.7679408  36.0699408  17.1460000
  83.8289408  36.0299408  16.9640000  85.1819408  35.7409408  16.3480000
  65.1569408  41.4689408  15.1180000  64.3929408  41.0489408  15.5120000
  65.9069408  41.0229408  15.5130000  76.3049408  47.8459408  18.6500000
  76.4699408  48.5339408  18.0040000  76.6669408  47.0539408  18.2540000
  71.4229408  31.4139408  22.3640000  71.7979408  31.2949408  23.2370000
  72.1729408  31.6199408  21.8060000  64.3739408  32.0349408  22.5920000
  65.0449408  32.5869408  22.9950000  63.7539408  32.6539408  22.2080000
  67.8019408  46.5439408   7.0640000  67.6149408  45.6139408   7.1890000
  67.8329408  46.9049408   7.9500000  69.5459408  44.8449408  27.9910000
  69.9689408  45.6099408  27.6000000  69.0599408  45.1949408  28.7380000
  61.7749408  30.6259408  28.9360000  62.5749408  31.0719408  29.2140000
  61.1079408  31.3129408  28.9280000  72.7309408  42.2139408  18.9580000
  72.2289408  41.4239408  18.7610000  72.6519408  42.7509408  18.1690000
  63.0389408  57.9559408  28.5700000  63.2659408  57.7619408  27.6600000
  62.9049408  58.9029408  28.5870000  68.8229408  49.2789408  28.8730000
  69.0599408  48.7649408  29.6450000  68.2279408  49.9509408  29.2050000
  70.8119408  34.5099408  24.7060000  69.9129408  34.5729408  25.0290000
  70.7219408  34.4639408  23.7540000  68.1589408  41.4079408  29.5170000
  69.1069408  41.5379408  29.5250000  67.9899408  40.8219408  30.2550000
  67.4109408  38.2469408  22.5390000  67.0039408  37.3889408  22.6570000
  66.8979408  38.6629408  21.8460000  65.9589408  32.4859408  29.6520000
  65.4029408  32.4139408  30.4270000  65.4749408  32.0279408  28.9650000
  88.9339408  29.9049408  27.3680000  89.3039408  30.6489408  27.8430000
  89.4589408  29.8439408  26.5700000  78.8269408  33.5309408  22.3500000
  78.8589408  32.6169408  22.6340000  79.3369408  33.5479408  21.5400000
  73.0339408  44.4019408   3.2410000  73.4299408  44.6769408   2.4150000
  72.6019408  43.5729408   3.0360000  74.6579408  31.6439408  24.3280000
  75.2989408  31.5509408  25.0330000  73.8909408  32.0299408  24.7510000
  69.2199408  40.8319408  20.8010000  68.2959408  40.9889408  20.6070000
  69.2279408  40.5439408  21.7140000  68.1889408  47.1529408  23.5900000
  69.0689408  47.0679408  23.9560000  67.9749408  48.0809408  23.6910000
  67.2109408  38.0059408   5.3860000  66.6419408  38.7579408   5.5510000
  67.9689408  38.1489408   5.9520000  90.1159408  38.1649408  11.4220000
  90.1929408  37.2509408  11.1470000  89.2939408  38.4639408  11.0340000
  81.0649408  39.6399408   2.0140000  81.5329408  39.0169408   2.5690000
  81.5449408  39.6309408   1.1850000  64.8949408  48.8529408   6.4910000
  65.2919408  49.6979408   6.7040000  65.4089408  48.5259408   5.7530000
  60.8779408  59.1329408   1.2170000  61.1779408  59.6449408   0.4660000
  61.0379408  58.2229408   0.9670000  66.9089408  34.5699408  15.4710000
  66.4269408  35.1219408  14.8560000  66.2819408  34.3849408  16.1700000
  75.2509408  38.2789408  25.3330000  74.5369408  37.6459408  25.4040000
  75.7219408  38.2039408  26.1630000  76.1519408  46.8349408   6.9130000
  75.4469408  46.5409408   6.3350000  75.7099408  47.0769408   7.7270000
  61.6169408  39.6609408  25.2060000  62.3259408  39.5369408  25.8370000
  62.0529408  39.9679408  24.4120000  75.4429408  30.1609408  13.2290000
  76.1079408  29.5109408  13.4580000  75.5879408  30.8799408  13.8430000
  84.0269408  49.3799408  21.4100000  84.2849408  48.4959408  21.6720000
  83.1719408  49.5119408  21.8210000  74.3959408  48.1949408  10.7400000
  74.3709408  48.1429408  11.6950000  74.2869408  47.2889408  10.4480000
  65.1149408  34.0059408  26.8730000  64.1869408  34.1409408  26.6820000
  65.3489408  34.7299408  27.4530000  64.5679408  42.7609408  23.3450000
  64.5269408  43.7069408  23.4870000  64.8839408  42.6679408  22.4460000
  81.5419408  32.2789408  24.3060000  81.1949408  32.1159408  23.4290000
  81.4429408  31.4439408  24.7630000  74.6329408  53.1429408  10.1660000
  74.8209408  53.6079408   9.3500000  74.7559408  52.2189408   9.9490000
  75.3159408  42.0549408  16.3340000  74.9349408  42.8129408  16.7780000
  76.1729408  41.9419408  16.7450000  82.2929408  47.8109408  23.8080000
  82.1829408  47.0259408  24.3450000  82.7159408  48.4419408  24.3890000
  69.7159408  47.2639408   0.6440000  70.4809408  46.8889408   0.2080000
  70.0779408  47.7609408   1.3780000  69.6429408  57.8269408  24.9720000
  69.4569408  57.5769408  24.0670000  70.3899408  58.4219408  24.9080000
  67.2109408  41.8149408  24.3940000  66.3699408  42.1359408  24.0660000
  67.5599408  42.5409408  24.9100000  60.1669408  38.8079408  20.3710000
  59.8829408  38.0049408  20.8070000  59.9809408  39.5029408  21.0020000
  71.3649408  39.9299408  18.7550000  70.7509408  39.2719408  18.4300000
  71.2129408  39.9549408  19.7000000  74.3869408  50.9349408   1.0510000
  73.5169408  51.2199408   0.7720000  74.8489408  50.7409408   0.2360000
  70.7769408  39.9669408  15.3550000  71.7099408  40.1599408  15.2610000
  70.7469408  39.1889408  15.9110000  63.5569408  37.1909408  26.0440000
  64.3569408  36.6719408  26.1280000  63.4109408  37.2549408  25.1000000
  79.8279408  45.7489408  13.0870000  80.5869408  45.7009408  13.6680000
  79.2939408  44.9909408  13.3260000  60.9909408  44.1799408  29.6390000
  61.5389408  44.9439408  29.4570000  60.9489408  44.1369408  30.5940000
  71.3459408  43.1939408  28.8840000  70.7059408  43.7409408  28.4290000
  71.9039408  42.8469408  28.1880000  88.4329408  31.3169408  17.7720000
  88.3759408  30.3929408  18.0160000  88.3789408  31.7879408  18.6040000
  76.9629408  46.6139408  22.6300000  76.8069408  47.5369408  22.8310000
  77.8629408  46.5879408  22.3060000  86.9299408  41.9079408   1.8610000
  86.9209408  42.4829408   2.6270000  87.6339408  41.2839408   2.0360000
  75.8339408  33.3109408   1.4930000  76.3929408  32.5349408   1.4550000
  75.4889408  33.4019408   0.6050000  60.8749408  33.4179408  23.9600000
  60.5559408  32.5409408  23.7490000  61.6379408  33.5389408  23.3940000
  73.8929408  49.7199408  17.2500000  73.8199408  50.5249408  16.7370000
  74.7049408  49.3139408  16.9450000  70.5189408  37.1779408  15.9270000
  70.5439408  36.3239408  16.3590000  70.1409408  36.9999408  15.0660000
  75.9109408  57.6449408  20.9300000  75.4609408  56.9469408  20.4540000
  75.2979408  57.8989408  21.6190000  75.5579408  34.1889408  26.1150000
  74.8629408  34.8469408  26.1260000  75.7909408  34.1009408  25.1910000
  77.6369408  60.0739408  22.6510000  77.4279408  59.3739408  22.0330000
  77.3079408  59.7569408  23.4920000  69.3779408  38.0839408  28.2570000
  68.8019408  38.1769408  27.4980000  70.1869408  38.5259408  28.0000000
  67.9469408  37.0969408  19.7360000  67.9239408  36.1409408  19.7090000
  68.7869408  37.3059408  20.1460000  76.8989408  59.9439408   5.6780000
  76.7499408  59.2089408   6.2740000  76.6159408  59.6199408   4.8230000
  69.8299408  57.2289408   5.4010000  68.9329408  57.4469408   5.1470000
  70.3679408  57.5429408   4.6740000  78.4289408  59.3959408  28.3290000
  77.9429408  58.5779408  28.2260000  78.7299408  59.3839408  29.2380000
  61.1219408  36.0539408   9.6410000  60.6489408  36.3209408   8.8530000
  61.9209408  36.5809408   9.6320000  71.1519408  52.9069408  20.7830000
  71.1849408  51.9589408  20.9060000  70.5209408  53.0349408  20.0740000
  71.0869408  55.7069408   7.3250000  70.8939408  56.1889408   8.1280000
  70.7599408  56.2699408   6.6230000  62.6749408  48.7829408  10.9760000
  63.1839408  49.3299408  11.5740000  63.0549408  48.9529408  10.1140000
  73.9669408  45.5319408   5.7910000  74.1179408  44.5939408   5.6770000
  73.3829408  45.7699408   5.0710000  62.1679408  34.6769408  12.0900000
  61.6919408  35.0179408  11.3330000  61.8439408  35.1909408  12.8290000
  69.7219408  58.0699408   8.6160000  69.4219408  58.0619408   7.7080000
  69.1469408  58.6979408   9.0530000  71.7279408  50.3879408  21.2710000
  71.6209408  49.5149408  20.8940000  72.3419408  50.2629408  21.9960000
  88.0529408  55.8899408  12.2050000  88.2489408  56.7309408  12.6180000
  87.0989408  55.8779408  12.1250000  73.8599408  36.7389408   2.4700000
  73.0679408  37.2019408   2.1940000  73.5509408  36.0939408   3.1060000
  64.9999408  59.5199408  18.2440000  65.1339408  59.6689408  19.1800000
  64.6149408  60.3359408  17.9240000  70.5059408  49.8669408   6.1100000
  69.8559408  49.5139408   5.5030000  69.9949408  50.3779408   6.7380000
  73.0909408  35.1259408   4.6640000  73.6829408  35.1169408   5.4160000
  72.3979408  34.5079408   4.8970000  63.3269408  54.6049408  19.3680000
  64.2059408  54.2289408  19.3230000  63.4169408  55.4729408  18.9750000
  60.0379408  51.4779408   4.6990000  60.9309408  51.1549408   4.5830000
  59.4899408  50.8369408   4.2450000  75.7609408  55.8819408   4.7460000
  75.6409408  55.0999408   4.2060000  74.9199408  55.9989408   5.1890000
  74.2179408  50.3289408  13.1910000  74.4609408  51.2159408  12.9250000
  75.0449408  49.9189408  13.4450000  77.6079408  51.4719408  21.4500000
  77.1129408  52.1989408  21.8280000  77.2049408  50.6879408  21.8230000
  72.8429408  54.9729408  21.9030000  72.4879408  54.2539408  21.3800000
  73.3269408  55.5089408  21.2750000  64.6779408  52.4899408  16.5850000
  65.2769408  53.2359408  16.6160000  65.2109408  51.7439408  16.8610000
  65.7979408  51.3969408   6.7650000  66.4539408  51.7799408   7.3470000
  64.9819408  51.4349408   7.2640000  90.0089408  51.9419408  29.8560000
  89.3139408  52.0199408  30.5100000  89.9439408  51.0409408  29.5420000
  77.4849408  57.6719408   7.7400000  76.6389408  57.2889408   7.9700000
  77.8719408  57.0489408   7.1250000  62.3099408  48.7869408   5.5240000
  61.6629408  48.6259408   6.2120000  63.1549408  48.6519408   5.9530000
  74.3059408  58.7819408   7.3720000  74.7559408  58.1469408   7.9280000
  73.9669408  58.2639408   6.6420000  84.3189408  54.7159408  14.1060000
  84.8969408  53.9829408  13.8980000  84.5489408  55.3919408  13.4680000
  66.4959408  48.9039408   2.3800000  65.9039408  49.5189408   1.9470000
  65.9969408  48.0889408   2.4350000  65.8519408  57.3879408  29.9390000
  65.2559408  57.5509408  29.2070000  65.3619408  56.8089408  30.5230000
  76.4369408  49.0669408  21.2430000  76.5039408  48.3559408  20.6060000
  75.6939408  49.5899408  20.9420000  67.2649408  53.0889408   3.3920000
  67.5729408  53.8519408   2.9040000  67.6459408  53.1919408   4.2640000
  70.3759408  53.4779408  17.1180000  69.6279408  53.2069408  17.6500000
  70.5139408  52.7509408  16.5100000  75.4449408  55.1009408  14.0140000
  76.2459408  55.2109408  13.5020000  75.0809408  54.2679408  13.7140000
  69.1669408  35.4379408   5.7480000  68.8509408  35.6709408   4.8750000
  69.4189408  34.5179408   5.6750000  64.2729408  50.1469408  12.5690000
  63.8439408  50.9559408  12.8460000  65.0339408  50.0699408  13.1450000
  63.2469408  45.4839408   3.2100000  63.6359408  46.1419408   2.6340000
  63.7999408  45.4919408   3.9910000  64.1789408  47.7809408   8.9290000
  64.2309408  48.1619408   8.0530000  63.5919408  47.0319408   8.8310000
  71.1639408  59.3629408  14.0990000  71.9599408  59.0219408  14.5070000
  70.8289408  60.0059408  14.7250000  71.2709408  59.4239408   0.7540000
  71.1439408  59.1009408  -0.1380000  70.7259408  60.2099408   0.8040000
  70.1639408  44.3359408  17.9330000  69.7059408  43.4989408  17.8530000
  70.9369408  44.2409408  17.3770000  66.7049408  54.8669408   7.0240000
  67.3139408  54.3839408   6.4660000  66.0519408  55.2189408   6.4190000
  60.7809408  47.7779408   3.0700000  61.3749408  47.8329408   3.8190000
  61.3059408  48.0689408   2.3250000  66.9129408  56.0559408  13.0170000
  66.7609408  56.9919408  13.1450000  67.8609408  55.9539408  13.1010000
  69.9689408  55.5049408  11.5150000  70.0609408  56.2039408  12.1630000
  69.5309408  55.9229408  10.7730000  72.8559408  32.0519408   9.6080000
  73.6339408  31.5559408   9.8640000  72.6389408  32.5739408  10.3800000
  70.9059408  52.2719408   1.9450000  70.8709408  51.3879408   1.5790000
  70.4339408  52.8129408   1.3120000  60.6149408  44.7429408   2.4330000
  59.9859408  45.4539408   2.5520000  61.4659408  45.1429408   2.6100000
  75.8529408  53.8829408   7.9390000  75.9139408  53.7729408   6.9900000
  76.7569408  54.0099408   8.2250000  67.6779408  45.6369408  18.2270000
  67.3809408  45.6059408  19.1360000  68.4549408  45.0779408  18.2080000
  64.3649408  52.5619408  10.9050000  63.8259408  53.0119408  11.5560000
  65.0559408  53.1889408  10.6910000  71.6299408  53.2589408  11.2250000
  71.9139408  53.2529408  10.3110000  70.9499408  53.9319408  11.2610000
  63.3079408  52.3489408  14.1740000  63.6449408  53.1049408  13.6930000
  63.8179408  52.3319408  14.9840000  80.0859408  33.0319408   1.4180000
  80.4329408  32.3479408   0.8450000  79.2249408  32.7079408   1.6830000
  88.1769408  32.4219408  20.1510000  87.3749408  32.2089408  20.6290000
  88.4289408  33.2859408  20.4760000  79.2209408  58.9019408   9.3070000
  78.6819408  59.2899408   9.9960000  78.5979408  58.6619408   8.6210000
  60.9919408  29.9949408  25.7370000  61.7769408  30.0659408  25.1940000
  61.2419408  30.3889408  26.5730000  60.7819408  46.6869408  15.9170000
  60.1779408  46.2529408  16.5200000  60.3069408  47.4619408  15.6180000
  66.7389408  54.1779408   9.9850000  66.8389408  55.0859408  10.2700000
  66.8689408  54.2079408   9.0370000  70.4329408  31.4439408  15.7220000
  70.5989408  31.4719408  16.6650000  70.7079408  32.3039408  15.4050000
  71.3089408  49.2199408  25.3400000  72.0399408  49.3309408  24.7320000
  71.4799408  49.8519408  26.0380000  63.3309408  49.3729408  18.2010000
  62.4419408  49.5659408  18.5000000  63.8949408  49.6769408  18.9110000
  86.3379408  38.5209408  14.7070000  85.9319408  39.3879408  14.7270000
  85.5999408  37.9109408  14.7000000  63.1059408  51.9459408   8.1800000
  63.4189408  52.7029408   8.6760000  62.1519408  52.0229408   8.2010000
  75.4369408  53.2539408  20.0090000  76.0059408  53.1119408  19.2530000
  75.0009408  52.4129408  20.1430000  67.0619408  51.4499408   9.2770000
  67.2629408  52.2119408   9.8210000  66.5489408  50.8769408   9.8470000
  72.4839408  56.0199408  29.2340000  72.1589408  55.9759408  30.1330000
  71.7009408  56.1619408  28.7020000  72.0659408  58.8869408   9.7040000
  71.2279408  58.5389408   9.3980000  72.5209408  59.1529408   8.9050000
  71.2699408  56.0949408  16.5260000  71.8939408  56.0249408  15.8040000
  71.2699408  55.2259408  16.9290000  70.8659408  48.4719408   2.7640000
  70.6719408  49.4039408   2.8690000  71.5619408  48.2989408   3.3990000
  73.6439408  30.4429408   1.8470000  72.8629408  30.2199408   1.3410000
  73.6489408  31.3999408   1.8730000  63.1739408  30.5829408   4.5740000
  64.1289408  30.6499408   4.5680000  62.8779408  31.4079408   4.9580000
  69.4209408  51.4549408   7.9740000  68.8169408  51.4819408   8.7160000
  70.2109408  51.8929408   8.2920000  88.8549408  53.9129408  10.4620000
  88.1329408  53.2899408  10.3720000  88.5459408  54.5469408  11.1090000
  69.8059408  45.8759408  21.7940000  68.8959408  46.1509408  21.9020000
  69.7489408  44.9669408  21.5000000  67.9939408  51.3219408  14.6600000
  68.8919408  51.3319408  14.9910000  67.9779408  52.0019408  13.9870000
  84.4759408  50.8279408  19.0240000  85.3199408  51.0919408  18.6570000
  84.7019408  50.2359408  19.7420000  68.2409408  49.7249408  25.2630000
  68.0479408  49.1849408  26.0300000  69.1959408  49.7239408  25.2030000
  72.9509408  31.3049408  12.5350000  73.5739408  30.6049408  12.7320000
  72.1069408  30.9639408  12.8300000  89.8429408  56.8959408   8.9490000
  89.2369408  56.1979408   8.6960000  90.4319408  56.4839408   9.5810000
  73.2739408  56.0209408   5.5640000  73.0779408  55.8549408   6.4860000
  72.5129408  55.6839408   5.0920000  73.9679408  53.1959408  12.7510000
  73.0609408  53.1179408  12.4530000  74.4749408  53.3119408  11.9480000
  67.9659408  53.2009408  24.6000000  68.6309408  52.7009408  24.1270000
  67.9549408  54.0549408  24.1660000  88.8189408  58.9629408  19.5480000
  89.3499408  58.7979408  20.3270000  87.9169408  58.8389408  19.8420000
  76.6659408  42.2829408   1.1970000  76.1439408  43.0379408   0.9240000
  76.2319408  41.9649408   1.9890000  71.4439408  45.8639408  23.9440000
  72.0879408  46.3889408  23.4680000  70.7859408  45.6379408  23.2870000
  74.5009408  42.8519408   5.8720000  74.3729408  42.6739408   6.8040000
  73.6179408  42.8409408   5.5020000  70.8959408  49.7499408   9.9370000
  70.1039408  49.8069408  10.4710000  71.6099408  49.9329408  10.5480000
  79.0259408  44.6979408   5.6060000  79.1789408  45.5409408   6.0320000
  78.8219408  44.0999408   6.3250000  66.7689408  58.4729408  14.2330000
  67.3599408  59.2059408  14.4070000  65.9639408  58.6979408  14.6990000
  69.7699408  52.6009408  26.6800000  69.2829408  52.6389408  25.8560000
  69.7329408  53.4939408  27.0220000  87.3529408  30.3099408  12.8330000
  87.5099408  29.6729408  13.5300000  87.9369408  31.0399408  13.0390000
  72.1129408  48.3489408   7.7370000  71.7449408  48.5769408   8.5910000
  71.5649408  48.8179408   7.1070000  84.6629408  49.5749408  12.4850000
  84.9049408  48.8659408  13.0800000  84.1909408  49.1409408  11.7740000
  61.4539408  59.7109408  15.8930000  61.4329408  60.6619408  16.0040000
  62.2849408  59.5399408  15.4500000  66.8329408  50.5419408  17.8900000
  67.4509408  49.8449408  17.6710000  66.2749408  50.1639408  18.5700000
  85.2199408  44.8659408   1.3530000  85.3179408  44.0859408   0.8060000
  84.4369408  45.3009408   1.0120000  78.8679408  57.6099408   3.3490000
  79.7269408  57.3279408   3.6620000  78.2529408  57.2769408   4.0020000
  68.3579408  34.1779408   1.8600000  68.4489408  34.8209408   2.5630000
  67.5369408  33.7239408   2.0540000  71.2019408  58.7629408   3.4690000
  71.2119408  59.5939408   3.9450000  71.6049408  58.9659408   2.6240000
  66.1329408  53.5059408  20.1000000  66.3269408  53.2889408  19.1880000
  66.9599408  53.8419408  20.4480000  70.2109408  58.4339408  11.9620000
  71.0079408  58.2959408  11.4500000  70.5229408  58.6039408  12.8510000
  77.3879408  52.3639408  27.4260000  77.6389408  52.8729408  28.1970000
  78.1209408  52.4709408  26.8190000  61.6809408  58.4499408   7.5820000
  62.3499408  57.9409408   7.1260000  60.8959408  57.9039408   7.5440000
  85.9239408  52.7609408  13.2040000  85.7279408  52.7439408  12.2670000
  86.0819408  51.8459408  13.4340000  79.3099408  56.6769408  14.0320000
  79.6109408  56.8749408  14.9190000  79.3619408  55.7229408  13.9680000
  63.3539408  54.7089408   9.0660000  63.7559408  55.5449408   9.3010000
  62.5179408  54.9489408   8.6650000  61.4129408  56.7549408   0.3960000
  62.1889408  57.0679408  -0.0690000  61.2349408  55.8959408   0.0140000
  89.6089408  57.8679408  15.3230000  90.1049408  57.1339408  14.9590000
  90.2649408  58.5469408  15.4810000  82.3659408  44.6299408   8.6880000
  81.7399408  44.6659408   9.4110000  83.1379408  45.0919408   9.0160000
  61.5119408  49.0599408  13.6060000  60.8219408  49.4449408  13.0660000
  62.0049408  48.5029408  13.0030000  63.9449408  56.8669408  18.1460000
  63.7629408  56.8199408  17.2080000  64.4529408  57.6719408  18.2510000
  73.2799408  52.0519408  15.6120000  72.3279408  51.9589408  15.6370000
  73.5199408  51.8259408  14.7140000  72.9559408  51.3659408   6.3640000
  73.4859408  51.8059408   5.6990000  72.4029408  50.7609408   5.8690000
  63.4409408  36.1809408   1.9050000  64.0029408  36.8479408   1.5100000
  63.9759408  35.7989408   2.6010000  77.0119408  53.5979408   0.0990000
  77.4669408  54.3679408   0.4400000  76.1409408  53.9179408  -0.1370000
  67.1949408  52.4749408  28.1130000  66.6079408  52.3649408  27.3650000
  68.0739408  52.3999408  27.7400000  78.2589408  42.5979408   7.4360000
  77.7069408  41.9699408   6.9700000  77.6589408  43.0499408   8.0290000
  60.1369408  33.5589408   5.8370000  59.9919408  32.6449408   5.5950000
  60.0729408  33.5669408   6.7920000  75.3399408  50.8529408  28.1340000
  74.7079408  51.5289408  27.8920000  76.1799408  51.1839408  27.8140000
  79.9039408  30.2909408  26.3150000  79.3069408  30.0529408  27.0240000
  80.2959408  31.1169408  26.5980000  86.3759408  53.1479408  22.1470000
  85.9069408  53.8409408  21.6830000  87.2419408  53.1299408  21.7400000
  68.6959408  34.9359408  26.2190000  68.5659408  34.8349408  27.1620000
  67.9669408  35.4869408  25.9330000  65.0549408  30.9999408  27.6170000
  65.2369408  31.8089408  27.1400000  64.9239408  30.3429408  26.9330000
  64.7479408  56.4299408   2.0810000  64.8309408  55.7089408   2.7050000
  63.9279408  56.8609408   2.3190000  69.2759408  56.4629408  14.7030000
  69.7309408  56.2569408  15.5190000  69.1089408  57.4049408  14.7520000
  83.3719408  59.3539408  16.9710000  83.3079408  58.3989408  16.9860000
  82.9949408  59.6059408  16.1290000  76.2559408  53.4489408  22.4580000
  75.9049408  53.5529408  21.5740000  75.4959408  53.5559408  23.0320000
  66.9949408  45.9949408  20.7340000  66.4209408  45.7369408  21.4560000
  66.9939408  46.9519408  20.7580000  76.4109408  57.9309408  16.0400000
  76.7929408  58.4529408  16.7440000  76.9819408  58.0879408  15.2870000
  74.1419408  54.1589408  24.0840000  73.6309408  53.3779408  24.2940000
  73.5819408  54.6599408  23.4910000  73.5379408  46.9969408  22.3460000
  74.1009408  46.3869408  22.8230000  73.4289408  46.5979408  21.4830000
  73.4829408  49.4799408  23.5240000  73.6019408  48.6709408  23.0260000
  74.1959408  49.4769408  24.1620000  65.5179408  50.8639408   0.6340000
  64.6129408  50.9029408   0.3240000  65.8689408  51.7369408   0.4600000
  63.9199408  53.7329408  27.9040000  63.7749408  52.7969408  27.7640000
  64.6069408  53.7729408  28.5690000  83.3409408  55.3679408  26.2690000
  83.8739408  55.7849408  25.5910000  82.6439408  55.9989408  26.4470000
  81.0999408  57.1969408  26.2780000  80.7519408  57.3389408  25.3980000
  81.3499408  58.0699408  26.5810000  74.6979408  55.7839408  19.6430000
  74.8279408  55.7939408  18.6940000  74.6369408  54.8559408  19.8670000
  71.6579408  59.4879408  25.1230000  71.5199408  60.2759408  25.6490000
  72.5939408  59.3049408  25.2060000  65.6269408  55.5319408  22.0670000
  66.1349408  55.9269408  21.3580000  65.2669408  54.7309408  21.6870000
  68.4599408  32.5539408  24.9290000  68.0919408  31.8119408  25.4080000
  68.4689408  33.2689408  25.5650000  63.5699408  50.9729408  27.9310000
  62.6959408  50.8599408  27.5580000  64.1639408  50.6609408  27.2500000
  84.5209408  47.0009408  22.3890000  85.1209408  46.3069408  22.6620000
  83.6929408  46.7869408  22.8180000  71.6979408  50.0789408  29.7730000
  70.8099408  49.8989408  29.4640000  72.0089408  49.2409408  30.1130000
  70.6369408  51.0749408  15.7480000  71.0509408  50.3259408  16.1760000
  70.8889408  50.9959408  14.8280000  67.8009408  47.6069408  26.9660000
  67.9509408  48.0929408  27.7770000  68.6709408  47.3129408  26.6970000
  74.6939408  57.6009408  29.4540000  73.7959408  57.3609408  29.6810000
  74.6029408  58.1929408  28.7070000  74.6019408  58.8039408  23.5100000
  75.1489408  58.3629408  24.1610000  74.6489408  59.7299408  23.7450000
  68.0119408  55.6129408  29.1090000  67.3469408  55.9979408  29.6800000
  67.5689408  55.4959408  28.2690000  77.2359408  55.8399408  24.2300000
  77.9919408  55.7569408  23.6490000  76.6439408  55.1399408  23.9550000
  76.3829408  55.0279408  16.5230000  75.9809408  54.9789408  15.6560000
  76.6939408  55.9299408  16.5930000  59.8979408  55.6919408  22.9550000
  59.7849408  54.8959408  23.4740000  60.8379408  55.7319408  22.7780000
  68.7329408  55.2859408   2.7840000  69.4529408  55.3559408   2.1580000
  68.2929408  56.1349408   2.7390000  86.7709408  33.6649408  22.7270000
  86.7729408  32.8369408  23.2070000  87.3549408  34.2339408  23.2270000
  65.4859408  47.0279408  25.4590000  65.3769408  46.1209408  25.7470000
  66.3439408  47.2849408  25.7970000  69.9189408  33.5539408  21.8240000
  69.1149408  33.4609408  22.3350000  70.5089408  32.8899408  22.1800000
  71.3379408  58.9519408  27.8980000  70.3879408  58.9459408  27.7800000
  71.6909408  58.7969408  27.0220000  68.4839408  42.6569408  12.7750000
  68.7579408  43.2109408  12.0450000  69.2489408  42.1129408  12.9640000
  64.8689408  52.0059408   4.4930000  65.4839408  52.3369408   3.8380000
  65.3879408  51.9349408   5.2950000  61.1839408  53.8679408   2.2820000
  61.7039408  53.3719408   1.6500000  61.6219408  53.7219408   3.1200000
  61.2759408  50.9209408  22.3260000  61.5259408  50.2529408  21.6880000
  61.9619408  51.5849408  22.2600000  67.4129408  56.2019408  20.0570000
  67.4249408  56.6489408  19.2110000  68.2419408  56.4469408  20.4690000
  70.8449408  32.1909408  28.1290000  69.9649408  31.9919408  27.8090000
  70.7209408  32.4099408  29.0520000  72.1609408  51.0939408  27.1720000
  71.3539408  51.5889408  27.0280000  72.4389408  51.3399408  28.0540000
  81.6459408  55.8579408  19.2480000  81.8839408  55.4889408  18.3980000
  81.1379408  55.1669408  19.6750000  61.9099408  56.0429408  26.4380000
  61.0299408  56.3809408  26.2760000  61.8099408  55.4669408  27.1960000
  86.5009408  53.4099408   3.8900000  87.2679408  53.2959408   3.3290000
  86.1529408  54.2679408   3.6490000  72.1069408  58.3369408  22.1520000
  72.8629408  58.3479408  22.7390000  71.9139408  59.2609408  21.9920000
  66.9049408  59.6589408  24.4020000  67.4049408  59.1249408  25.0190000
  67.5369408  59.8999408  23.7250000  75.8789408  32.1039408  21.6990000
  75.5149408  31.9559408  22.5720000  76.7829408  31.7959408  21.7610000
  68.8949408  51.6709408  19.8570000  68.2309408  51.5909408  19.1720000
  68.9859408  50.7849408  20.2080000  79.3409408  49.3989408  20.3370000
  79.0289408  49.1119408  19.4790000  78.5439408  49.5879408  20.8320000
  74.5349408  33.3569408  28.7370000  74.1719408  32.4879408  28.5610000
  75.0539408  33.5609408  27.9590000  77.1019408  45.7249408  25.9070000
  77.7749408  46.4049408  25.8650000  76.2939408  46.1989408  26.1020000
  73.0649408  31.5539408  20.0000000  73.9649408  31.6039408  20.3230000
  72.9399408  30.6309408  19.7800000  68.2529408  31.2669408  28.1430000
  67.5959408  31.4079408  28.8250000  68.1889408  30.3329408  27.9390000
  70.1359408  52.0139408  23.1660000  70.2959408  52.4989408  22.3560000
  70.9959408  51.9489408  23.5810000  78.4869408  38.0279408   1.6070000
  79.1999408  38.3819408   2.1380000  78.0509408  38.7999408   1.2450000
  75.1319408  47.2609408  26.3960000  75.2409408  47.6919408  27.2440000
  74.5449408  46.5269408  26.5740000  67.2789408  56.4109408  26.2950000
  66.3539408  56.2849408  26.0820000  67.7199408  56.4259408  25.4460000
  74.4529408  50.9099408   3.7780000  74.3679408  50.7669408   2.8350000
  75.0229408  50.2019408   4.0770000  67.1399408  57.5469408  17.6840000
  66.8289408  57.2759408  16.8200000  66.5409408  58.2459408  17.9460000
  85.0939408  33.0129408  25.4040000  84.7599408  32.6939408  24.5660000
  85.6369408  32.2969408  25.7340000  75.7979408  58.7229408   3.2530000
  75.6619408  57.7969408   3.0530000  75.1299408  59.1799408   2.7420000
  69.0859408  31.1759408   1.1750000  68.4019408  30.5059408   1.1510000
  68.6729408  31.9539408   0.8020000  68.0329408  59.1679408  10.5370000
  68.6119408  58.8459408  11.2270000  67.5109408  59.8489408  10.9610000
  72.8329408  46.8609408  13.8650000  72.4649408  45.9809408  13.9370000
  72.1939408  47.3459408  13.3420000  68.4229408  58.5869408  27.7970000
  68.0969408  58.0029408  27.1120000  68.0209408  58.2599408  28.6020000
  73.1219408  45.2349408  26.3590000  72.9999408  44.2859408  26.3360000
  73.2029408  45.4879408  25.4390000  65.5019408  30.1759408  20.8970000
  65.1519408  30.8029408  21.5300000  65.3639408  29.3209408  21.3060000
  74.6709408  37.7959408   5.3550000  75.3629408  37.6749408   4.7050000
  74.3999408  36.9069408   5.5840000  72.2429408  36.3459408   7.8770000
  73.0639408  35.9189408   7.6340000  71.5769408  35.9019408   7.3520000
  70.7739408  36.2109408  29.9660000  71.1209408  36.8889408  30.5450000
  70.1539408  36.6719408  29.4000000  84.9609408  45.1169408   6.4150000
  84.0719408  45.3439408   6.1410000  85.4919408  45.8699408   6.1570000
  79.3769408  37.5459408  12.7920000  79.5639408  37.9789408  11.9590000
  78.9799408  38.2279408  13.3340000  89.9389408  42.9329408  20.1570000
  89.2409408  43.5489408  19.9330000  89.5489408  42.0699408  20.0180000
  83.4369408  38.0999408  14.6000000  83.0629408  38.4679408  13.7990000
  83.0709408  37.2169408  14.6520000  87.4789408  33.9939408  10.6530000
  87.3369408  34.2939408   9.7560000  87.7139408  33.0699408  10.5640000
  83.8419408  37.9109408  11.1330000  83.2649408  38.4849408  10.6300000
  84.5029408  37.6239408  10.5030000  84.1399408  31.3499408  10.9420000
  83.2239408  31.4689408  11.1920000  84.1099408  30.7419408  10.2040000
  82.8249408  51.8459408  29.9020000  83.1099408  51.1609408  30.5080000
  83.3979408  51.7459408  29.1420000  60.0609408  36.7279408  17.5830000
  60.7789408  37.3319408  17.7720000  59.7179408  37.0209408  16.7390000
  79.3879408  42.0239408   1.7080000  78.4449408  42.1189408   1.5730000
  79.5609408  41.0969408   1.5410000  78.6229408  34.8899408  12.5080000
  79.1929408  34.4829408  11.8550000  78.9969408  35.7609408  12.6440000
  88.2209408  53.3229408  14.8680000  87.5639408  53.4529408  14.1850000
  89.0359408  53.1649408  14.3900000  87.7609408  32.7849408   3.9490000
  88.2159408  32.0179408   3.6010000  87.0409408  32.9349408   3.3370000
  75.8699408  37.0169408   0.6600000  75.2029408  36.8519408   1.3270000
  76.4569408  37.6569408   1.0610000  79.5339408  47.2399408  26.6460000
  80.2919408  46.8729408  26.1910000  79.5379408  46.8119408  27.5020000
  85.9399408  35.4359408  14.7680000  86.1589408  35.8389408  13.9280000
  85.7629408  34.5199408  14.5560000  85.4509408  36.9699408   5.4990000
  84.8859408  36.2069408   5.3780000  85.7639408  37.1789408   4.6180000
  60.4629408  52.8909408  13.2580000  60.2129408  51.9829408  13.0880000
  61.3599408  52.8359408  13.5870000  74.7979408  41.2589408  20.4950000
  74.1209408  41.7319408  20.0110000  75.3779408  41.9449408  20.8280000
  78.4659408  53.8039408   9.1880000  78.8379408  54.6159408   8.8460000
  78.9149408  53.1109408   8.7040000  76.7079408  37.0059408   3.8860000
  77.1969408  37.5149408   3.2390000  76.7849408  36.0999408   3.5860000
  65.6159408  33.9159408  17.9620000  66.1299408  33.4149408  18.5940000
  65.1099408  33.2559408  17.4870000  85.2969408  35.6169408  19.7390000
  86.1719408  35.2819408  19.5430000  84.9219408  35.8239408  18.8830000
  70.5079408  37.1349408  20.9140000  71.3479408  36.7929408  20.6060000
  70.6289408  37.2549408  21.8560000  65.4309408  38.9249408  13.3460000
  64.5449408  38.8439408  13.6980000  65.4069408  39.7229408  12.8170000
  89.5329408  30.6999408   3.3760000  90.1959408  30.7629408   2.6890000
  89.1429408  29.8339408   3.2540000  79.1209408  41.3209408  13.8360000
  78.7309408  41.3989408  12.9650000  78.7629408  42.0599408  14.3270000
  83.4509408  46.6139408  17.9200000  83.0099408  47.2459408  17.3520000
  82.8429408  46.4799408  18.6470000  61.2429408  55.3819408  11.0890000
  61.8839408  54.7989408  10.6820000  60.4409408  54.8619408  11.1370000
  60.5589408  33.4369408   2.1060000  60.9039408  33.9419408   1.3700000
  59.6199408  33.3699408   1.9320000  85.4529408  53.0009408   6.3470000
  86.1639408  52.5919408   6.8410000  85.8259408  53.1649408   5.4810000
  79.8289408  42.1619408   4.8400000  80.2879408  42.3219408   5.6640000
  79.5549408  43.0299408   4.5450000  78.0169408  37.0069408  27.2190000
  77.3259408  36.5609408  27.7080000  78.0999408  36.5049408  26.4080000
  85.5609408  41.1319408  15.4750000  85.1189408  40.5969408  16.1340000
  84.8589408  41.6419408  15.0700000  61.6959408  44.5629408   5.6540000
  61.0739408  44.5129408   4.9270000  61.7619408  43.6639408   5.9750000
  86.7429408  33.6139408  17.8620000  86.4659408  34.0829408  17.0750000
  86.0469408  32.9769408  18.0200000  81.6259408  49.4869408   1.2030000
  82.4039408  49.0829408   1.5860000  81.3859408  50.1789408   1.8190000
  79.8959408  37.7829408  29.2340000  79.4559408  37.5179408  28.4260000
  79.2739408  37.5689408  29.9280000  89.2179408  53.7659408   5.8380000
  89.3659408  54.3189408   5.0710000  89.4309408  52.8809408   5.5410000
  81.2669408  30.7559408   8.5830000  81.3999408  31.0999408   9.4660000
  80.5919408  30.0849408   8.6870000  84.1839408  34.4299408  29.2750000
  83.9199408  35.0219408  28.5710000  83.4349408  34.4179408  29.8720000
  87.0209408  30.6149408  23.3560000  86.1119408  30.3729408  23.1770000
  87.4589408  29.7839408  23.5400000  87.0549408  50.3509408  13.5330000
  86.2059408  50.0659408  13.1960000  87.4329408  49.5649408  13.9270000
  83.3629408  35.0449408  11.8150000  83.7649408  35.8809408  11.5770000
  84.1039408  34.4649408  11.9930000  84.9759408  31.0289408  20.1130000
  84.6729408  31.3969408  19.2830000  84.4759408  31.4979408  20.7810000
  82.5319408  53.9129408  16.2690000  83.3199408  53.8259408  16.8050000
  82.8589408  54.0669408  15.3830000  86.3219408  37.4929408  23.9420000
  86.3019408  36.7529408  24.5480000  87.1049408  37.9849408  24.1900000
  60.1739408  41.8329408  11.6060000  60.4409408  41.6049408  12.4960000
  60.8999408  42.3529408  11.2630000  85.7369408  49.1459408   8.1800000
  84.8499408  49.1279408   8.5390000  86.1869408  48.4239408   8.6170000
  76.6539408  39.5689408   7.1000000  76.2859408  39.1019408   6.3490000
  77.5579408  39.2609408   7.1550000  78.3429408  55.7469408   6.0430000
  78.8659408  54.9999408   5.7510000  77.5969408  55.7659408   5.4440000
  64.7929408  55.8129408   5.2480000  64.3529408  56.6369408   5.4600000
  64.0799408  55.1949408   5.0880000  83.2419408  53.1659408  10.4920000
  82.9709408  53.7249408   9.7630000  82.5509408  52.5069408  10.5570000
  85.7379408  56.5139408  16.0000000  85.5399408  55.6189408  15.7260000
  84.8859408  56.8929408  16.2160000  60.0309408  36.3349408   7.2890000
  59.4529408  35.8939408   6.6650000  60.7089408  36.7369408   6.7450000
  65.4109408  31.6389408  14.1010000  66.3529408  31.5459408  13.9540000
  65.1199408  32.2449408  13.4200000  80.9789408  41.3509408  28.1040000
  81.4849408  40.7389408  28.6380000  81.4719408  41.4199408  27.2860000
  72.0409408  33.7889408   0.3090000  71.4489408  34.5119408   0.1020000
  72.7159408  33.8299408  -0.3690000  84.4599408  32.0869408  17.5660000
  84.6979408  32.1839408  16.6440000  83.9199408  31.2969408  17.5930000
  68.5499408  34.3989408  19.4280000  69.1569408  34.0959408  20.1040000
  67.8149408  33.7869408  19.4750000  87.6739408  37.2299408  28.4930000
  88.1929408  38.0039408  28.2730000  87.5139408  36.7999408  27.6530000
  81.2339408  31.7299408  11.0500000  81.0569408  31.7479408  11.9900000
  81.0979408  32.6329408  10.7630000  82.1169408  36.2239408  16.4610000
  81.5759408  36.8179408  16.9810000  81.6809408  36.1839408  15.6100000
  77.0459408  39.7769408  30.0950000  76.9329408  40.7139408  30.2500000
  77.3599408  39.7189408  29.1920000  87.9949408  31.5439408   9.2960000
  87.6689408  30.7739408   9.7610000  87.5859408  31.4939408   8.4320000
  64.1849408  49.2609408  15.5620000  63.2749408  49.4589408  15.3410000
  64.2369408  49.3929408  16.5080000  81.5719408  46.0879408  19.4610000
  81.2589408  46.5549408  20.2350000  82.0279408  45.3219408  19.8100000
  84.5889408  42.8039408  18.0590000  85.3309408  42.2919408  17.7360000
  84.9889408  43.5189408  18.5550000  62.6959408  34.0899408  21.8710000
  62.3059408  33.5869408  21.1560000  62.9999408  34.8979408  21.4560000
  89.8669408  52.4849408  23.7190000  90.5199408  52.0109408  23.2050000
  89.1229408  52.5889408  23.1250000  82.9719408  59.7709408   6.6800000
  82.3179408  60.1079408   7.2920000  83.6439408  59.3789408   7.2390000
  90.0319408  39.3559408   7.3470000  89.0959408  39.2539408   7.5190000
  90.1719408  38.9109408   6.5120000  72.1399408  37.4559408  12.2220000
  73.0799408  37.4309408  12.0430000  71.9669408  36.6499408  12.7080000
  82.2569408  42.3619408  11.4830000  81.7519408  43.1539408  11.2990000
  82.2079408  41.8529408  10.6740000  87.9939408  38.9349408  18.7130000
  88.8849408  38.7869408  19.0320000  87.4419408  38.4079408  19.2910000
  85.9349408  51.0989408  28.9360000  85.4299408  51.0179408  28.1280000
  86.4369408  51.9069408  28.8260000  62.6369408  38.9269408   8.6340000
  63.0599408  39.1289408   9.4690000  61.7709408  39.3279408   8.7010000
  61.9669408  38.2519408  18.4270000  62.8179408  38.6559408  18.5950000
  61.4089408  38.5619408  19.1400000  87.5039408  35.9579408  12.6760000
  87.6349408  35.1329408  12.2080000  87.4329408  36.6169408  11.9850000
  66.0659408  33.5049408   3.3350000  65.7129408  34.3689408   3.5490000
  65.3759408  33.0859408   2.8200000  80.1629408  33.2489408   7.1740000
  80.7889408  32.6829408   7.6270000  79.4289408  33.3299408   7.7820000
  76.8479408  59.6619408  10.6200000  76.3209408  59.0759408  11.1630000
  76.2789408  59.8849408   9.8840000  65.8869408  40.2809408   5.3640000
  65.6359408  40.8369408   6.1020000  65.8729408  40.8659408   4.6070000
  82.0509408  57.8479408  21.3780000  82.2919408  57.3129408  20.6220000
  82.4079408  58.7149408  21.1820000  86.0049408  58.4509408  20.5770000
  85.3879408  57.8689408  20.1320000  85.6789408  59.3319408  20.3920000
  75.9519408  45.9449408   0.6750000  75.0699408  45.6069408   0.8280000
  76.3909408  45.2529408   0.1800000  82.1649408  37.7679408   8.6350000
  83.0789408  37.4839408   8.6030000  82.1279408  38.5239408   8.0490000
  84.3869408  40.8979408   7.2380000  84.6949408  41.3449408   8.0260000
  85.0989408  41.0059408   6.6070000  80.4669408  57.5979408  16.5020000
  80.0149408  58.4079408  16.7400000  79.9129408  56.9009408  16.8520000
  77.1799408  54.4859408  11.5940000  77.1339408  54.0919408  10.7230000
  77.8769408  55.1389408  11.5260000  87.1109408  37.9229408  10.7590000
  86.6699408  38.6599408  11.1820000  87.2859408  38.2279408   9.8680000
  84.4309408  38.2329408   0.1660000  84.9999408  38.8329408  -0.3160000
  84.9499408  37.9689408   0.9260000  87.6649408  47.8339408  20.4340000
  87.0099408  47.9209408  21.1270000  87.7929408  48.7259408  20.1110000
  80.4459408  35.7249408   5.9510000  80.6899408  34.9389408   6.4390000
  81.2809408  36.0999408   5.6680000  64.0989408  47.2339408  20.9040000
  63.5579408  47.6299408  20.2210000  64.7849408  47.8809408  21.0720000
  83.0409408  55.6989408   7.7480000  82.2169408  56.1149408   7.4950000
  83.0589408  54.8799408   7.2530000  75.0709408  33.1099408  11.9730000
  75.9309408  32.7019408  11.8700000  74.5769408  32.4959408  12.5170000
  61.2549408  36.8109408  14.1630000  60.3669408  36.7379408  14.5100000
  61.5479408  37.6809408  14.4330000  61.2039408  48.3319408   8.1590000
  61.7869408  48.4599408   8.9080000  60.4139408  47.9419408   8.5330000
  70.8509408  48.0429408  20.5640000  71.5169408  47.8769408  19.8970000
  70.6929408  47.1879408  20.9640000  85.3289408  43.5029408  11.5810000
  85.0329408  44.2309408  12.1270000  86.1189408  43.1829408  12.0170000
  87.1119408  57.8559408  14.3000000  86.6299408  57.3489408  14.9530000
  88.0099408  57.8809408  14.6300000  84.7879408  32.1149408   5.8990000
  84.1839408  31.3719408   5.9120000  85.6579408  31.7159408   5.9040000
  79.4179408  45.1679408  16.0930000  80.2329408  44.6729408  16.0060000
  79.6999408  46.0539408  16.3210000  87.7659408  43.5989408   3.8470000
  87.7389408  43.8419408   4.7720000  87.9009408  44.4269408   3.3850000
  65.1689408  44.5189408  16.3780000  65.8409408  44.4369408  17.0540000
  64.4199408  44.9079408  16.8290000  82.8469408  44.3839408  29.2860000
  83.0729408  45.2939408  29.4810000  82.3399408  44.4319408  28.4760000
  84.5049408  33.7859408   8.3370000  84.6659408  33.1259408   7.6630000
  85.3689408  33.9629408   8.7110000  87.8919408  45.9599408   1.8140000
  87.0629408  45.4949408   1.6950000  88.2699408  46.0039408   0.9360000
  81.4209408  35.9589408  13.7260000  80.7449408  36.4539408  13.2630000
  82.0389408  35.6999408  13.0420000  64.4059408  40.8699408   1.0480000
  63.6999408  41.4429408   1.3470000  65.1239408  41.0339408   1.6600000
  77.9489408  47.1749408  11.2960000  77.9059408  46.2389408  11.0990000
  78.8179408  47.2979408  11.6800000  85.4809408  41.9639408   9.4060000
  85.1199408  42.5119408  10.1030000  86.2799408  41.5939408   9.7810000
  87.2379408  34.9699408   8.0610000  87.3909408  35.8909408   8.2740000
  87.5609408  34.8749408   7.1650000  84.1389408  38.9709408  24.3760000
  83.4629408  38.4299408  23.9690000  84.9209408  38.4189408  24.3760000
  76.7859408  48.4209408   1.6810000  76.7219408  47.5299408   1.3370000
  77.4129408  48.8559408   1.1040000  82.8489408  43.5719408  19.9600000
  83.5609408  43.2709408  19.3950000  82.1069408  43.0129408  19.7290000
  83.2589408  30.4689408  14.2250000  83.7039408  29.7619408  13.7580000
  83.9489408  31.1049408  14.4120000  68.5139408  48.9249408   4.6940000
  68.4449408  47.9949408   4.9100000  67.8739408  49.0569408   3.9950000
  60.9149408  42.1979408   3.5130000  60.7669408  42.8599408   2.8380000
  60.2449408  41.5339408   3.3490000  76.2619408  35.6629408  11.8050000
  77.1559408  35.3529408  11.9450000  75.7269408  34.8699408  11.8260000
  85.2609408  32.5219408  15.1500000  86.1599408  32.1979408  15.2140000
  85.1129408  32.6349408  14.2110000  86.0369408  39.7699408  12.4210000
  86.3529408  39.1019408  13.0300000  85.0999408  39.8379408  12.6050000
  83.0209408  38.4339408   3.5050000  83.2149408  39.3699408   3.4500000
  83.4379408  38.1499408   4.3190000  78.3969408  31.7669408   4.5070000
  78.1719408  31.0319408   5.0770000  79.3529408  31.8069408   4.5340000
  87.9889408  39.2129408  25.4190000  88.5799408  39.2639408  26.1700000
  87.4759408  40.0199408  25.4620000  89.4079408  50.4649408  12.4830000
  88.5159408  50.4729408  12.8300000  89.2959408  50.4509408  11.5330000
  79.9099408  38.3669408  10.0660000  79.9099408  39.2509408   9.6990000
  80.6139408  37.9149408   9.6030000  82.6919408  41.3699408  26.1520000
  82.7639408  40.5559408  25.6530000  83.5839408  41.5479408  26.4510000
  82.3429408  47.8229408  13.7280000  82.4789408  48.5569408  14.3260000
  81.4959408  47.9999408  13.3180000  78.5539408  48.9259408  24.6820000
  78.7939408  48.2999408  25.3660000  79.3529408  49.4279408  24.5250000
  60.9789408  41.7839408   6.4660000  60.8059408  41.5689408   5.5490000
  60.8379408  40.9619408   6.9360000  78.5449408  36.2349408   8.9460000
  78.6869408  36.3049408   8.0020000  78.8589408  37.0669408   9.2990000
  77.5829408  32.1169408  11.6990000  77.5359408  31.9249408  12.6360000
  77.4419408  31.2719408  11.2740000  83.0879408  36.0449408   2.2860000
  83.1179408  36.9629408   2.5550000  82.5769408  36.0479408   1.4770000
  79.4299408  59.0179408   0.8690000  80.3869408  59.0099408   0.8630000
  79.1899408  58.4979408   1.6360000  83.0929408  34.5809408  26.6170000
  83.7929408  34.1529408  26.1250000  82.4559408  34.8409408  25.9520000
  89.4029408  51.3029408  16.8030000  89.1189408  52.1149408  16.3830000
  90.2919408  51.4879408  17.1050000  89.9999408  33.3119408   8.7350000
  89.2879408  32.6869408   8.8720000  89.6239408  34.1599408   8.9690000
  67.9229408  30.9289408   7.0610000  68.3859408  31.4039408   7.7510000
  67.6119408  31.6119408   6.4670000  86.0629408  36.2019408   2.8730000
  86.7759408  36.4759408   2.2960000  85.4759408  35.7009408   2.3070000
  85.4119408  50.8149408   1.5320000  85.4999408  50.9999408   0.5970000
  86.2239408  50.3649408   1.7650000  88.3659408  35.4669408  19.3010000
  88.8039408  35.9929408  18.6320000  88.0599408  34.6899408  18.8330000
  73.7059408  30.8079408  28.7940000  72.8089408  30.6749408  29.0990000
  74.2449408  30.6919408  29.5770000  80.9419408  34.3839408  17.7550000
  80.5819408  33.9059408  17.0080000  81.5239408  35.0359408  17.3640000
  79.5519408  43.4549408  29.3200000  79.6209408  42.9329408  30.1200000
  79.9389408  42.9039408  28.6400000  89.4049408  39.7769408   1.2160000
  89.7829408  39.6169408   0.3520000  88.8879408  38.9919408   1.4010000
  83.8139408  46.7889408  29.7140000  83.7769408  47.3819408  30.4640000
  84.6549408  46.9789408  29.2980000  62.6029408  46.3849408  27.6050000
  62.3689408  46.0419408  26.7430000  63.5349408  46.1849408  27.6980000
  81.4199408  43.2069408  24.2540000  81.6209408  42.3409408  24.6100000
  81.2789408  43.0559408  23.3200000  84.3839408  46.4509408  26.5200000
  84.4989408  47.3369408  26.1780000  84.0379408  46.5779408  27.4040000
  89.1759408  40.3779408  22.4850000  88.2839408  40.5879408  22.2080000
  89.0939408  40.1619408  23.4140000  87.5159408  41.6489408  18.8270000
  87.5849408  40.6959408  18.7670000  87.6049408  41.8379408  19.7610000
  88.1189408  43.0759408  23.9840000  88.7619408  42.6759408  24.5710000
  87.4529408  43.4369408  24.5690000  60.9759408  43.9229408  26.7960000
  61.2779408  44.0099408  27.7000000  61.7439408  43.6149408  26.3150000
  84.1129408  31.7349408  28.1150000  84.7809408  31.4299408  27.5010000
  84.4059408  32.6089408  28.3730000  81.7639408  43.3609408   2.3840000
  81.7739408  43.7069408   1.4920000  80.9559408  42.8499408   2.4340000
  60.6829408  34.4809408  26.5800000  60.8219408  34.3349408  25.6450000
  60.8769408  35.4089408  26.7100000  88.0309408  55.7699408   0.2010000
  87.6519408  56.3839408  -0.4290000  88.7909408  56.2309408   0.5560000
  62.9169408  40.2559408  22.9200000  62.3259408  40.8239408  22.4250000
  63.4999408  40.8599408  23.3800000  81.1939408  34.9999408  24.4080000
  80.3499408  35.2639408  24.7730000  81.2559408  34.0639408  24.5980000
  86.5439408  35.5789408  25.9390000  85.8209408  34.9659408  25.8060000
  87.3229408  35.0939408  25.6660000  88.7599408  58.1839408   3.0480000
  88.8759408  57.2849408   3.3560000  89.4779408  58.3219408   2.4310000
  62.6489408  37.0719408  23.3300000  62.9159408  37.8839408  22.8980000
  62.1039408  36.6239408  22.6820000  82.4329408  54.4709408   0.8190000
  81.6569408  54.3989408   1.3750000  82.5059408  53.6149408   0.3970000
  87.0089408  37.7539408  20.9100000  87.1639408  37.5669408  21.8360000
  86.1749408  37.3249408  20.7160000  63.2349408  48.6979408  24.7910000
  62.6099408  47.9739408  24.8150000  64.0829408  48.2909408  24.9680000
  65.1829408  45.2449408  28.7310000  65.2499408  44.6459408  27.9880000
  66.0909408  45.4169408  28.9820000  79.5569408  49.2589408   4.7920000
  79.8279408  48.5009408   4.2750000  79.5719408  49.9889408   4.1730000
  86.9399408  40.5709408   5.5480000  87.2969408  41.4359408   5.7460000
  87.5429408  40.2049408   4.9000000  82.1869408  37.3489408  23.2340000
  82.6329408  37.2299408  22.3960000  81.9849408  36.4599408  23.5270000
  83.0549408  56.8219408  15.9560000  82.1179408  56.8199408  16.1500000
  83.1779408  56.0819408  15.3610000  86.0829408  44.9759408  22.9120000
  86.8299408  44.5689408  22.4730000  86.1679408  44.7089408  23.8270000
  61.7139408  34.7479408   4.2270000  61.3929408  34.3309408   3.4270000
  61.0859408  34.4889408   4.9010000  86.7119408  58.8939408   1.2240000
  87.5319408  58.5429408   1.5710000  86.3319408  59.3829408   1.9540000
  84.2559408  53.5429408  18.3680000  84.2759408  52.7569408  18.9150000
  85.1489408  53.6239408  18.0320000  87.4089408  58.0439408  28.3580000
  86.8659408  58.5749408  28.9420000  88.0689408  58.6529408  28.0260000
  66.1619408  51.5309408  25.3790000  66.6229408  52.3089408  25.0660000
  66.8009408  50.8229408  25.2930000  84.1759408  48.5089408   1.7660000
  84.5339408  49.3739408   1.5650000  84.8279408  48.1069408   2.3410000
  85.2449408  45.1359408  19.2390000  84.6809408  45.3399408  19.9860000
  85.0279408  45.8009408  18.5860000  87.8889408  32.9389408   0.7890000
  87.1389408  32.3659408   0.9500000  87.5709408  33.8159408   1.0000000
  77.5889408  35.9449408  21.8650000  77.9269408  35.0509408  21.9150000
  78.2399408  36.4199408  21.3480000  78.6329408  33.7929408  27.6990000
  79.4459408  33.2949408  27.6140000  78.5859408  34.0199408  28.6280000
  89.2179408  41.7099408  26.2810000  89.3859408  41.1539408  27.0420000
  89.5759408  42.5639408  26.5240000  80.0679408  36.6019408  20.6770000
  80.4109408  35.7399408  20.4420000  80.8469408  37.1369408  20.8290000
  89.4139408  33.1659408  16.0720000  89.2369408  32.3849408  16.5970000
  88.9069408  33.8589408  16.4960000  86.1419408  42.3979408  27.6270000
  85.4329408  42.2329408  28.2480000  86.9029408  42.5879408  28.1750000
  77.8799408  37.6249408  24.1220000  77.7579408  36.6759408  24.0920000
  77.0159408  37.9709408  24.3480000  81.5639408  45.6829408  25.4200000
  82.2419408  45.5029408  26.0710000  81.3869408  44.8329408  25.0160000
  89.8499408  32.5939408  28.7080000  89.3119408  32.9239408  29.4270000
  89.7199408  33.2259408  28.0010000  84.0009408  34.7069408   5.0710000
  83.8849408  34.5229408   4.1390000  84.2479408  33.8649408   5.4530000
  88.6979408  34.9809408  23.9730000  89.2289408  35.6649408  24.3820000
  89.2709408  34.2149408  23.9480000  69.8899408  41.8059408  17.1790000
  70.2009408  41.2239408  17.8720000  70.1229408  41.3559408  16.3660000
  62.2539408  45.9619408  24.7120000  61.4929408  45.4689408  24.4070000
  63.0069408  45.4519408  24.4130000  80.1359408  46.2199408  28.9780000
  79.9219408  45.3049408  28.7990000  80.5769408  46.2019408  29.8280000
  80.0029408  39.2039408  23.4090000  80.8009408  38.6759408  23.4560000
  79.3039408  38.6049408  23.6730000  83.6059408  42.7209408  14.1930000
  83.3069408  42.6279408  13.2890000  83.8659408  43.6389408  14.2670000
  81.9269408  48.4589408  27.4240000  81.6859408  49.2179408  27.9550000
  81.2059408  47.8409408  27.5460000  80.6599408  50.6539408  28.5530000
  80.8069408  50.9329408  29.4560000  80.5649408  51.4699408  28.0610000
  83.0969408  37.0939408  20.7320000  83.5719408  37.7899408  20.2780000
  83.5829408  36.2959408  20.5220000  60.1209408  37.1739408  25.0360000
  61.0009408  37.3079408  24.6820000  59.6779408  38.0119408  24.9010000
  81.2829408  34.2129408  10.2370000  82.1709408  34.4309408  10.5200000
  80.9569408  35.0169408   9.8310000  65.2779408  41.5559408   7.5480000
  64.8449408  40.9229408   8.1220000  65.5749408  42.2489408   8.1370000
  66.0519408  36.0389408  12.9900000  66.7619408  35.9259408  12.3580000
  65.9799408  36.9859408  13.1040000  85.8779408  44.2189408  25.3820000
  85.9199408  43.5969408  26.1090000  85.3539408  44.9449408  25.7190000
  86.9689408  56.1229408  22.1750000  87.8909408  56.2139408  22.4190000
  86.8059408  56.8519408  21.5770000  60.5089408  39.7659408  13.8980000
  59.8269408  39.7809408  14.5700000  60.2249408  39.0889408  13.2830000
  82.0069408  43.9469408  16.1180000  82.6479408  43.3789408  15.6900000
  82.4899408  44.3509408  16.8390000  81.3509408  53.5839408  27.1550000
  82.0519408  54.1379408  26.8110000  80.8199408  54.1729408  27.6900000
  63.1369408  45.9089408  17.4420000  63.2879408  46.7359408  17.8990000
  62.3239408  46.0479408  16.9560000  84.1139408  33.7159408  21.1230000
  84.5879408  34.4759408  20.7840000  84.5419408  33.5189408  21.9560000
  59.8739408  39.2279408  27.4500000  60.4399408  39.4969408  26.7260000
  60.4529408  38.7489408  28.0430000  73.7419408  36.4529408  15.6390000
  74.2449408  36.8479408  14.9270000  73.4279408  37.1979408  16.1520000
  88.1879408  42.5169408  29.3490000  89.0379408  42.9559408  29.3450000
  88.2049408  41.9679408  30.1330000  63.9139408  44.3159408  20.0960000
  63.3239408  45.0459408  20.2810000  63.8699408  44.2069408  19.1460000
  79.3529408  39.0949408  19.9650000  78.9699408  39.8979408  20.3180000
  79.1119408  38.4159408  20.5960000  77.2159408  32.2419408  14.2630000
  77.4569408  31.6839408  15.0030000  76.9959408  33.0849408  14.6600000
  65.4609408  44.3169408  26.1370000  64.8509408  43.6819408  25.7600000
  66.2679408  43.8219408  26.2740000  66.1759408  33.6459408  23.8610000
  67.0319408  33.4339408  24.2340000  65.6269408  33.8449408  24.6190000
  60.6509408  44.1239408  23.5250000  59.7119408  43.9479408  23.5810000
  60.9809408  43.4709408  22.9080000  62.0539408  42.5049408  21.6720000
  62.7779408  43.0489408  21.3630000  61.3189408  42.7389408  21.1060000
  87.4739408  38.2959408   7.3770000  87.0789408  39.0559408   6.9490000
  87.4529408  37.6089408   6.7110000  64.6389408  38.2059408   0.3610000
  64.5499408  39.1419408   0.5400000  65.5799408  38.0399408   0.4160000
  63.5789408  35.2939408  14.7230000  64.2869408  35.7469408  14.2640000
  62.8469408  35.9109408  14.7040000  74.3679408  38.5949408  20.4910000
  74.4269408  39.5469408  20.5680000  74.3979408  38.4279408  19.5490000
  62.4339408  59.4479408  21.3220000  61.7669408  58.7629408  21.3040000
  62.1439408  60.0829408  20.6670000  79.6399408  47.0629408  21.6660000
  80.2749408  47.2579408  22.3550000  79.4069408  47.9179408  21.3040000
  87.1349408  42.3819408  21.4320000  86.3539408  41.8949408  21.6950000
  87.7049408  42.3559408  22.2000000  61.7099408  34.5589408  17.3620000
  61.2679408  34.1129408  16.6390000  61.0809408  35.2169408  17.6580000
  63.7859408  33.1389408   5.5410000  64.7399408  33.2159408   5.5740000
  63.5029408  33.8839408   5.0110000  82.3099408  40.3559408  21.7640000
  81.7209408  41.1059408  21.6740000  81.7629408  39.6659408  22.1410000
  88.6129408  50.5529408  20.3810000  89.2029408  50.8629408  21.0670000
  88.5069408  51.3039408  19.7970000  78.5159408  55.7009408   0.7170000
  78.6129408  56.6029408   1.0230000  79.1969408  55.5999408   0.0510000
  84.3199408  45.3179408  13.4330000  83.7379408  46.0469408  13.2200000
  84.8819408  45.6559408  14.1310000  82.5469408  45.5769408   4.2880000
  81.8889408  46.0879408   3.8160000  82.4899408  44.7009408   3.9070000
  79.5539408  30.0589408  17.2370000  79.8519408  30.3489408  16.3750000
  78.6799408  30.4369408  17.3290000  84.5779408  56.1839408  19.7680000
  85.3119408  55.7339408  19.3490000  83.8019408  55.8429408  19.3220000
  81.9709408  59.7309408   4.2900000  81.4919408  60.5529408   4.3860000
  82.2929408  59.5359408   5.1700000  76.2369408  32.5929408   7.0360000
  76.4979408  31.7169408   6.7530000  77.0569408  33.0199408   7.2820000
  77.8549408  33.6489408   8.8230000  78.0219408  34.5789408   8.9790000
  77.6949408  33.2839408   9.6930000  80.3289408  54.1079408   2.8240000
  79.6049408  54.5969408   2.4350000  80.2499408  54.2699408   3.7640000
  81.6989408  30.0119408  19.4060000  82.3109408  29.7979408  18.7010000
  80.9559408  30.4209408  18.9620000  87.1489408  51.4149408   8.1260000
  87.0169408  51.9989408   8.8730000  86.3659408  50.8649408   8.1090000
  81.1139408  32.1109408   4.7390000  81.1109408  32.6599408   5.5240000
  81.5609408  32.6399408   4.0780000  82.0079408  40.1399408  16.2200000
  81.9829408  40.3189408  15.2790000  82.8879408  39.7949408  16.3750000
  76.6089408  48.0909408  13.3550000  76.7289408  47.5009408  12.6110000
  77.4469408  48.5439408  13.4390000  87.8639408  47.4319408   9.3610000
  87.7469408  47.2979408  10.3010000  88.3079408  48.2779408   9.2930000
  61.0329408  55.6039408  13.9710000  60.2089408  55.2399408  14.2930000
  61.2309408  55.0919408  13.1870000  61.9339408  59.6879408  18.6420000
  62.2469408  58.7839408  18.6550000  61.5109408  59.7829408  17.7880000
  61.1559408  48.4609408  20.0400000  60.2709408  48.7809408  19.8660000
  61.0349408  47.5459408  20.2950000  62.0799408  58.3339408   3.5080000
  61.6479408  58.7749408   2.7770000  62.4669408  59.0439408   4.0210000
  77.4589408  49.6149408   6.9330000  76.5709408  49.2699408   7.0270000
  77.7209408  49.3639408   6.0470000  85.5019408  55.3549408  28.7860000
  86.3499408  54.9159408  28.7100000  85.0439408  55.1329408  27.9750000
  86.6749408  47.5639408  13.5590000  86.2789408  47.7839408  14.4030000
  86.8119408  46.6169408  13.5990000  79.9319408  53.5469408   5.4520000
  79.4589408  52.7149408   5.4690000  80.8459408  53.3059408   5.6030000
  83.0439408  51.6259408  13.4910000  82.5689408  51.6099408  12.6600000
  83.9519408  51.4399408  13.2520000  81.5259408  57.0239408   3.9340000
  81.8329408  56.7029408   3.0860000  81.8009408  57.9409408   3.9570000
  82.5659408  53.1829408   6.2490000  82.5139408  52.3989408   6.7960000
  83.4839408  53.2299408   5.9820000  62.7359408  53.2419408  21.7040000
  62.8889408  53.6109408  20.8350000  62.5469408  53.9999408  22.2570000
  85.2289408  33.2469408  12.4100000  84.8559408  32.6399408  11.7710000
  86.0849408  33.4789408  12.0500000  63.0529408  56.7679408  15.5720000
  62.4119408  56.2939408  15.0430000  63.1159408  57.6289408  15.1590000
  84.1119408  51.8259408   3.7350000  84.7569408  52.4489408   4.0690000
  84.4369408  51.5849408   2.8680000  85.3229408  46.5199408   3.7300000
  85.4299408  45.8639408   3.0410000  84.4889408  46.2979408   4.1450000
  61.2079408  54.3789408  28.9760000  60.7519408  53.5889408  29.2650000
  62.1189408  54.1049408  28.8680000  85.6729408  50.8899408  23.2500000
  85.9379408  51.6929408  22.8020000  85.0279408  50.4909408  22.6670000
  88.0719408  45.0429408  14.1250000  88.3279408  44.1539408  13.8810000
  88.7059408  45.6059408  13.6790000  81.4969408  47.6769408   8.9910000
  80.6869408  47.9649408   9.4120000  81.2069408  47.1699408   8.2330000
  81.3089408  51.2979408  10.9070000  80.3719408  51.3809408  11.0840000
  81.3559408  50.9219408  10.0280000  79.9409408  55.9629408  28.3800000
  79.0549408  56.3189408  28.3170000  80.3819408  56.2749408  27.5900000
  82.7679408  49.3119408  17.3790000  82.3009408  50.0629408  17.0110000
  83.4259408  49.6989408  17.9570000  79.7129408  51.5399408   7.5910000
  79.1179408  50.8719408   7.2500000  80.5109408  51.0599408   7.8100000
  83.7039408  47.7479408  10.5130000  84.1529408  46.9339408  10.2860000
  82.9529408  47.7799408   9.9200000  87.4709408  55.8359408   6.5070000
  87.7579408  54.9329408   6.6370000  87.3959408  55.9299408   5.5570000
  87.1539408  55.2229408  18.8610000  87.2309408  54.5909408  18.1470000
  87.9429408  55.7599408  18.7930000  88.9979408  45.2499408  17.3840000
  88.6679408  45.0439408  18.2580000  88.5579408  44.6249408  16.8080000
  77.0249408  52.7099408  17.6690000  76.8809408  52.0149408  17.0260000
  76.7759408  53.5139408  17.2140000  85.5159408  32.1409408   2.2740000
  84.6969408  32.6339408   2.2290000  85.2789408  31.3189408   2.7030000
  87.8379408  46.4779408   4.9610000  87.1649408  46.4449408   4.2810000
  88.2269408  47.3489408   4.8720000  78.1619408  41.4479408  18.1310000
  78.1129408  41.6889408  19.0560000  79.0279408  41.7449408  17.8520000
  71.7949408  34.1809408  15.4660000  71.0579408  34.3869408  16.0420000
  72.4969408  34.7619408  15.7580000  84.6279408  59.7129408   3.2650000
  83.6809408  59.5999408   3.3410000  84.9819408  59.3039408   4.0550000
  84.1549408  58.4689408   8.6710000  84.9869408  57.9959408   8.6860000
  83.5239408  57.8559408   9.0480000  87.6299408  58.3429408   7.5860000
  87.5669408  57.3909408   7.5050000  87.5549408  58.5079408   8.5260000
  86.7179408  53.2369408  17.1170000  87.0469408  53.5299408  16.2670000
  86.4409408  52.3329408  16.9690000  88.6429408  53.4169408   2.1320000
  89.5469408  53.7219408   2.2000000  88.2299408  54.0239408   1.5180000
  78.1019408  59.3339408  13.8490000  78.8249408  59.9569408  13.9170000
  78.5209408  58.5029408  13.6270000  60.8829408  45.8929408  20.9960000
  61.0199408  45.6469408  21.9110000  60.0429408  45.4959408  20.7640000
  89.7119408  57.0349408  18.1520000  89.5509408  57.4989408  17.3300000
  89.2639408  57.5589408  18.8150000  67.1339408  53.6299408  17.5170000
  66.9599408  54.4419408  17.0430000  67.4829408  53.0339408  16.8540000
  64.8129408  50.6049408  20.3340000  64.8989408  51.5329408  20.5520000
  64.8869408  50.1529408  21.1740000  85.3029408  56.0099408  11.7730000
  85.0519408  55.5969408  10.9470000  84.6769408  56.7259408  11.8830000
  75.4609408  53.4619408   3.0360000  75.9439408  53.2799408   2.2300000
  75.3659408  52.6069408   3.4560000  73.5109408  57.9189408  15.3630000
  74.4469408  57.8499408  15.5500000  73.2639408  57.0499408  15.0470000
  85.1669408  55.1589408   1.8110000  84.2559408  54.8679408   1.8270000
  85.3879408  55.2049408   0.8810000  81.1539408  57.1659408   6.5480000
  81.4189408  56.9389408   5.6570000  81.5359408  58.0299408   6.7000000
  77.0539408  56.8609408  28.2050000  76.3929408  57.1089408  28.8510000
  76.5519408  56.4939408  27.4770000  76.0469408  34.5639408  15.7710000
  76.0809408  34.5099408  16.7260000  75.4529408  35.2939408  15.5940000
  62.8799408  57.4629408  12.2670000  62.0239408  57.0379408  12.2150000
  63.2679408  57.3299408  11.4030000  88.6919408  49.2009408   3.8620000
  89.5599408  48.8229408   3.7170000  88.1619408  48.8679408   3.1380000
  87.3199408  48.8899408   1.5420000  87.8129408  49.1749408   0.7720000
  87.3469408  47.9339408   1.5040000  60.1709408  55.8719408   3.6420000
  60.6029408  55.3299408   2.9810000  60.8439408  56.4929408   3.9200000
  81.9069408  50.2649408   8.2860000  81.7919408  49.3209408   8.3890000
  82.4119408  50.3589408   7.4790000  80.8209408  55.7819408  11.5460000
  80.6039408  55.9449408  10.6280000  80.7959408  56.6459408  11.9560000
  87.3569408  31.1799408   6.2670000  87.6309408  31.6629408   5.4870000
  88.0139408  30.4909408   6.3660000  78.4929408  50.8929408  11.3400000
  78.2899408  50.2629408  10.6490000  77.8709408  51.6069408  11.2050000
  87.5929408  58.9229408  10.4380000  87.4519408  59.3709408  11.2720000
  88.5019408  58.6269408  10.4740000  69.8979408  58.3239408  17.5680000
  70.5479408  57.6229408  17.5210000  69.0609408  57.8869408  17.4100000
  60.6229408  55.0849408  19.8260000  61.5509408  54.8679408  19.9130000
  60.5909408  55.7159408  19.1080000  72.2699408  46.4249408  28.7760000
  72.9509408  47.0969408  28.8060000  72.4539408  45.9319408  27.9760000
  89.5049408  39.6089408   3.9390000  89.2369408  39.4409408   3.0360000
  90.3389408  39.1489408   4.0320000  84.9399408  58.5519408  12.8940000
  85.6679408  58.0659408  13.2810000  85.3499408  59.3119408  12.4820000
  86.2609408  50.5759408  16.5330000  85.9599408  49.7359408  16.1870000
  87.1519408  50.4039408  16.8380000  60.9209408  59.9589408   9.9480000
  61.4189408  59.3979408   9.3520000  60.0779408  60.0829408   9.5120000
  60.1289408  30.2789408   6.1440000  60.1339408  30.2069408   5.1890000
  60.6739408  29.5509408   6.4420000  80.1059408  56.3139408   8.9570000
  80.3829408  56.3689408   8.0430000  79.8789408  57.2129408   9.1940000
  83.6379408  59.1839408  27.3740000  83.8629408  58.6559408  28.1400000
  83.7149408  60.0889408  27.6760000  77.8029408  31.4979408   2.0150000
  77.8179408  31.3079408   2.9530000  77.9959408  30.6579408   1.5970000
  81.2849408  51.4409408   3.2030000  82.1909408  51.6019408   3.4660000
  80.9289408  52.3109408   3.0260000  84.8339408  48.1349408  15.5300000
  85.1179408  47.2749408  15.8380000  84.2629408  48.4619408  16.2250000
  85.9399408  53.0769408  10.1740000  85.0409408  52.8989408  10.4490000
  85.8779408  53.8789408   9.6550000  67.8459408  34.6539408  28.8310000
  68.2209408  34.7389408  29.7070000  67.3629408  33.8279408  28.8550000
  60.5509408  53.0329408   8.3860000  60.1859408  53.4379408   7.6000000
  59.8569408  53.1109408   9.0410000  81.0919408  32.8469408  27.7180000
  81.6289408  32.2659408  28.2570000  81.7059408  33.5029408  27.3870000
  79.0939408  55.2559408  17.6310000  78.8449408  55.5209408  18.5160000
  78.5189408  54.5169408  17.4310000  84.6889408  56.4959408  23.9890000
  85.4609408  56.4079408  23.4300000  84.0209408  55.9579408  23.5630000
  79.7889408  57.3129408  23.2930000  80.5389408  57.1429408  22.7230000
  79.6029408  58.2449408  23.1720000  86.0789408  58.6559408   5.3270000
  86.5179408  58.9459408   6.1270000  86.5309408  57.8469408   5.0860000
  81.9989408  57.5469408   1.0180000  82.9239408  57.6119408   0.7810000
  81.7279408  56.6889408   0.6910000  77.6129408  50.7449408   3.2240000
  77.4149408  49.8939408   2.8320000  77.7729408  51.3209408   2.4770000
  88.7029408  53.2359408  20.3090000  89.5569408  53.6369408  20.1500000
  88.0819408  53.8059408  19.8540000  79.1839408  52.3919408  19.3730000
  78.8759408  52.0519408  20.2130000  78.3959408  52.4469408  18.8330000
  88.9259408  49.3549408  29.1130000  88.4939408  49.0299408  28.3230000
  89.7449408  48.8629408  29.1590000  82.4529408  52.8319408  24.3870000
  83.2899408  53.2969408  24.4070000  81.9209408  53.3219408  23.7600000
  89.3329408  50.1069408   9.6110000  90.1389408  50.5079408   9.2850000
  88.7129408  50.1949408   8.8870000  89.7389408  31.2499408  22.7270000
  89.9719408  30.5979408  22.0660000  88.7969408  31.1349408  22.8560000
  74.6139408  54.3099408  28.8680000  73.7559408  54.7329408  28.8890000
  75.0889408  54.7639408  28.1720000  61.4839408  50.5129408  26.1210000
  61.9909408  49.8839408  25.6070000  60.8779408  50.9039408  25.4910000
  86.4009408  40.1289408  29.6700000  86.3809408  40.6799408  30.4520000
  86.2529408  40.7369408  28.9450000  89.0999408  56.4319408  25.9860000
  88.5239408  56.4859408  26.7480000  88.5919408  55.9469408  25.3350000
  87.4289408  54.6289408  24.5640000  86.6139408  54.5409408  24.0710000
  87.3679408  53.9629408  25.2490000  86.4519408  48.2429408  23.9800000
  86.5979408  49.0739408  23.5290000  85.5169408  48.0689408  23.8690000
  86.6279408  35.1689408  30.1560000  85.8039408  34.7719408  29.8740000
  86.6229408  36.0389408  29.7570000  62.8429408  55.7119408  23.1490000
  63.7689408  55.4969408  23.0340000  62.8479408  56.5679408  23.5780000
  83.8769408  51.7659408  27.1800000  84.5629408  52.2469408  26.7180000
  83.0929408  52.3049408  27.0720000  88.0669408  45.0089408  20.1910000
  88.0739408  45.9439408  19.9830000  87.1889408  44.8459408  20.5340000
  86.0639408  47.5379408  28.8710000  86.7539408  46.9079408  28.6660000
  86.4249408  48.3839408  28.6060000  89.9059408  58.0329408  21.8660000
  89.3759408  58.3819408  22.5830000  90.0419408  57.1129408  22.0930000
  87.5559408  53.3009408  28.4550000  88.1949408  53.8009408  28.9620000
  88.0589408  52.9369408  27.7270000  87.8099408  47.9179408  26.6380000
  87.3599408  48.3039408  25.8870000  87.8709408  46.9859408  26.4280000
  80.8229408  50.4389408  24.5460000  81.4419408  51.1659408  24.6110000
  80.8099408  50.2179408  23.6140000  86.1169408  30.6769408  26.5390000
  85.8869408  30.0879408  25.8210000  86.9099408  30.2969408  26.9170000
  84.0979408  42.2559408  29.3850000  83.7049408  43.1289408  29.3770000
  83.3609408  41.6629408  29.5350000  63.7959408  32.6399408   1.5360000
  63.1589408  33.0979408   0.9870000  63.2689408  32.0539408   2.0780000
  89.0779408  52.0099408  26.4940000  89.7929408  51.5059408  26.8830000
  89.4689408  52.4279408  25.7270000  86.4579408  52.1029408  25.8250000
  87.2999408  51.6859408  26.0080000  86.1359408  51.6579408  25.0400000
  84.2699408  59.2149408  24.6630000  84.2869408  58.9489408  25.5820000
  84.4699408  58.4149408  24.1780000  79.3969408  52.8279408  25.2380000
  79.5079408  52.1059408  24.6190000  80.1119408  52.7199408  25.8640000
  80.7379408  33.9019408  20.2470000  80.8629408  33.9519408  19.3000000
  81.6089408  34.0529408  20.6130000  89.0199408  58.8129408  24.3330000
  89.8619408  59.1639408  24.6250000  88.8459408  58.0819408  24.9260000
  76.8359408  31.2099408  27.0900000  77.4759408  30.5949408  27.4500000
  77.1229408  32.0669408  27.4050000  86.1579408  56.4039408   3.9090000
  85.6669408  57.2129408   4.0520000  85.8099408  56.0549408   3.0890000
  77.0399408  58.4119408  24.8180000  77.5809408  58.5059408  25.6020000
  77.1749408  57.5059408  24.5410000  83.6199408  54.9529408  22.0760000
  82.8519408  54.5989408  21.6270000  84.1499408  55.3379408  21.3780000
  81.2529408  53.5169408  20.7880000  80.5179408  53.0819408  20.3570000
  80.8559408  53.9929408  21.5170000  63.1729408  59.6979408  23.8650000
  62.8949408  59.4999408  22.9710000  63.6089408  60.5479408  23.7990000
  84.4219408  39.4159408  20.1160000  85.2529408  39.6309408  20.5400000
  83.7539408  39.7569408  20.7110000  62.7039408  51.1609408   0.5350000
  61.8629408  51.6189408   0.5440000  62.8899408  51.0209408  -0.3940000
  83.9579408  31.6669408  23.3620000  83.0839408  31.9459408  23.6370000
  84.0009408  30.7409408  23.6010000  88.8059408  46.1259408  29.0390000
  89.4149408  46.8549408  28.9240000  89.3669408  45.3549408  29.1220000
  83.5929408  50.4459408   6.1030000  84.4549408  50.0469408   6.2220000
  83.6239408  50.8299408   5.2270000  81.0189408  51.9559408  17.3460000
  80.6409408  52.0609408  18.2200000  81.4569408  52.7889408  17.1720000
  89.3579408  36.4659408  21.7420000  88.9689408  36.1709408  20.9190000
  89.0259408  35.8529408  22.3980000  65.0389408  50.2599408  23.3180000
  65.4329408  50.8059408  23.9980000  64.2329408  49.9279408  23.7140000
  84.5659408  57.9129408  29.5880000  84.9279408  57.0679408  29.3220000
  85.1819408  58.2429408  30.2420000  82.3159408  30.6029408   0.0200000
  82.8489408  30.3259408   0.7650000  82.9519408  30.8169408  -0.6630000
  62.0639408  32.4419408  19.6400000  62.0359408  33.1009408  18.9460000
  61.3919408  31.8059408  19.3950000  76.0279408  59.2599408  18.5900000
  75.0909408  59.1729408  18.4130000  76.1359408  58.9249408  19.4800000
  80.3859408  54.2079408  23.2040000  80.0829408  55.1069408  23.3300000
  79.8389408  53.6859408  23.7910000  60.8689408  36.2169408   0.9050000
  61.1979408  36.6709408   0.1290000  61.6129408  36.1979408   1.5060000
  64.5629408  55.8619408  25.9740000  63.6279408  56.0279408  26.0910000
  64.7009408  54.9909408  26.3480000  70.0009408  56.2329408  21.9690000
  70.8279408  55.7619408  22.0740000  70.2609408  57.1449408  21.8330000
  73.1139408  59.2469408  18.1040000  73.4209408  58.6579408  17.4150000
  72.3449408  59.6749408  17.7280000  64.1209408  43.6749408  43.7610000
  64.0209408  44.4239408  44.3480000  64.6659408  43.0579408  44.2490000
  79.4019408  47.0039408  33.4620000  79.3069408  46.1259408  33.8320000
  78.6369408  47.1089408  32.8970000  81.2879408  35.2629408  59.9310000
  80.5409408  34.9539408  60.4440000  80.9199408  35.9259408  59.3470000
  66.9639408  57.2739408  34.1330000  66.2589408  56.7169408  34.4630000
  66.9889408  58.0129408  34.7410000  81.1249408  31.1489408  51.7350000
  80.9649408  30.2999408  51.3230000  81.6349408  31.6379408  51.0890000
  66.7109408  48.7099408  51.4700000  66.3839408  49.3649408  52.0880000
  67.6529408  48.8729408  51.4250000  71.8849408  41.9679408  42.0810000
  71.2899408  41.2449408  42.2800000  72.7569408  41.5759408  42.1090000
  65.8789408  36.9689408  38.7010000  65.4139408  36.1719408  38.4480000
  65.9029408  37.4959408  37.9020000  75.1049408  47.8279408  45.6050000
  74.2939408  47.6459408  45.1300000  75.7899408  47.7719408  44.9380000
  60.6359408  44.0729408  38.5360000  59.8129408  44.3929408  38.1640000
  60.9089408  43.3719408  37.9450000  78.8559408  48.6129408  39.2840000
  78.4689408  48.1719408  40.0410000  78.1489408  49.1559408  38.9360000
  69.0639408  38.6819408  47.8260000  68.4579408  38.2489408  48.4280000
  69.3939408  37.9759408  47.2700000  71.2259408  41.3479408  35.7040000
  70.6419408  41.7979408  36.3140000  71.6789408  40.6969408  36.2400000
  77.4669408  45.2269408  47.9080000  77.9479408  45.1439408  48.7320000
  78.1319408  45.1079408  47.2300000  82.0799408  39.5039408  36.3360000
  81.9909408  39.7379408  35.4120000  82.7389408  40.1109408  36.6740000
  65.6149408  43.6859408  38.9500000  65.7649408  43.7169408  39.8950000
  64.7539408  44.0859408  38.8300000  89.3079408  48.9599408  45.2020000
  89.6479408  49.5329408  45.8900000  89.8979408  49.0979408  44.4610000
  62.5329408  37.1629408  58.8470000  63.2739408  37.5749408  59.2930000
  62.8629408  36.9599408  57.9720000  88.0369408  35.5629408  35.5490000
  87.0969408  35.6829408  35.4130000  88.2159408  34.6789408  35.2300000
  78.3629408  51.3589408  30.6810000  77.7089408  52.0489408  30.5670000
  78.2789408  50.8169408  29.8970000  70.6849408  45.9839408  36.6650000
  71.1339408  46.8249408  36.7490000  69.8769408  46.0929408  37.1670000
  78.4319408  34.8569408  55.0460000  78.1149408  34.5139408  55.8810000
  78.3719408  34.1159408  54.4430000  88.7999408  39.9389408  45.7730000
  87.8609408  39.9999408  45.5990000  88.8569408  39.5959408  46.6650000
  62.3889408  50.7699408  33.8460000  63.1819408  51.3059408  33.8470000
  62.6729408  49.9199408  34.1820000  77.9779408  44.4559408  40.6650000
  77.2519408  44.3639408  40.0480000  77.7039408  43.9559408  41.4340000
  69.6549408  54.0029408  60.1860000  69.0479408  54.5939408  59.7410000
  70.5229408  54.3469408  59.9750000  73.5299408  44.6779408  30.5350000
  72.9009408  43.9769408  30.7060000  73.0779408  45.2629408  29.9270000
  76.9329408  52.0279408  43.3670000  77.2779408  52.9039408  43.1980000
  77.6629408  51.4399408  43.1730000  64.4319408  58.7859408  56.2340000
  64.8979408  58.1089408  55.7430000  63.7839408  59.1269408  55.6170000
  71.7599408  53.1179408  38.5430000  71.6899408  53.8819408  37.9720000
  72.0759408  52.4179408  37.9710000  74.5309408  56.0489408  31.8910000
  75.1549408  56.0429408  31.1650000  74.9719408  55.5639408  32.5890000
  61.5889408  37.8679408  35.1380000  61.9129408  37.0799408  34.7030000
  62.3749408  38.2939408  35.4810000  64.3779408  31.6949408  46.6380000
  63.4469408  31.8319408  46.4640000  64.7679408  31.5709408  45.7730000
  76.9779408  44.3809408  58.3850000  77.8199408  43.9829408  58.6060000
  77.1409408  44.8459408  57.5640000  71.0189408  32.1809408  48.1460000
  70.7569408  33.1019408  48.1390000  71.6919408  32.1279408  48.8240000
  75.1549408  30.6799408  38.8720000  74.7649408  31.4279408  38.4200000
  75.0899408  29.9599408  38.2450000  75.4189408  44.0349408  43.0950000
  74.8099408  43.9809408  43.8320000  74.8679408  44.2559408  42.3440000
  66.8749408  56.9259408  39.7580000  67.0919408  57.8089408  40.0560000
  67.0169408  56.9499408  38.8120000  88.5349408  45.5709408  37.6430000
  88.4489408  46.1489408  36.8850000  88.1879408  46.0809408  38.3750000
  68.3539408  36.3839408  33.5020000  69.0179408  36.9059408  33.0520000
  67.9879408  36.9769408  34.1590000  84.3849408  39.4109408  47.3650000
  84.7209408  38.5179408  47.2950000  84.2909408  39.5589408  48.3060000
  67.7939408  43.7699408  37.0920000  67.1589408  43.5089408  37.7590000
  68.3649408  43.0079408  36.9930000  69.0859408  32.8069408  42.3010000
  69.2659408  33.2629408  41.4790000  69.7729408  33.1059408  42.8980000
  75.8509408  43.9929408  39.0110000  75.1649408  44.5659408  38.6690000
  75.4019408  43.1709408  39.2080000  67.6489408  47.3009408  42.5020000
  67.1329408  47.8939408  43.0490000  67.6139408  46.4609408  42.9600000
  82.4549408  33.6049408  32.6640000  81.6819408  33.5749408  32.1000000
  82.7979408  34.4919408  32.5530000  81.2289408  50.5009408  44.9470000
  80.8759408  51.0379408  45.6570000  81.9479408  51.0209408  44.5870000
  67.2079408  38.2029408  59.8520000  67.3599408  38.7419408  60.6280000
  68.0649408  38.1409408  59.4310000  70.4099408  55.8839408  56.7950000
  70.4019408  56.2829408  55.9250000  69.6159408  56.2129408  57.2170000
  71.1919408  56.2969408  31.5580000  71.2509408  57.2469408  31.6600000
  71.6389408  55.9449408  32.3270000  64.6869408  33.6109408  42.3470000
  63.8339408  33.9499408  42.0730000  65.2309408  34.3909408  42.4540000
  73.1469408  42.3189408  57.0580000  73.5739408  42.0469408  56.2450000
  73.8619408  42.4039408  57.6880000  71.3659408  50.8169408  42.9800000
  71.3449408  51.5859408  42.4090000  72.2869408  50.5579408  42.9990000
  75.5709408  34.5019408  53.2080000  76.1229408  35.1429408  52.7600000
  75.2669408  33.9189408  52.5130000  74.5329408  49.5259408  37.8070000
  74.0209408  48.9609408  38.3850000  73.9069408  50.1799408  37.4950000
  64.9169408  44.0799408  36.0540000  65.2429408  43.2809408  36.4690000
  64.3959408  44.5079408  36.7330000  71.9419408  34.9309408  48.4310000
  72.8109408  35.3169408  48.3240000  71.7659408  34.9919408  49.3700000
  62.9999408  53.7209408  34.9930000  62.5599408  53.1309408  35.6050000
  63.7909408  53.2499408  34.7310000  69.3909408  35.9979408  43.5600000
  68.4679408  35.8209408  43.7410000  69.5449408  35.6099408  42.6990000
  66.4589408  49.0469408  44.2110000  65.7969408  48.9559408  44.8960000
  67.0899408  49.6709408  44.5690000  72.7269408  34.7419408  43.0350000
  73.5559408  34.2759408  42.9230000  72.3699408  34.4009408  43.8560000
  70.9189408  45.5149408  41.9010000  70.0709408  45.1079408  41.7250000
  70.7289408  46.4519408  41.9560000  71.2779408  38.6519408  39.3500000
  71.3409408  37.9429408  39.9910000  70.6729408  39.2789408  39.7440000
  67.3769408  58.8119408  31.6800000  66.6809408  58.2869408  31.2850000
  67.2869408  58.6599408  32.6210000  75.6899408  48.6069408  34.5490000
  75.8669408  48.6029408  33.6090000  76.2479408  47.9129408  34.9010000
  66.0069408  30.8799408  34.4630000  66.8559408  30.4709408  34.2940000
  66.1609408  31.8149408  34.3310000  69.4119408  38.7209408  36.5640000
  69.9009408  38.4549408  37.3430000  70.0189408  39.2819408  36.0810000
  70.9679408  48.3959408  45.9660000  71.6029408  47.8829408  45.4660000
  70.1389408  47.9329408  45.8490000  69.0729408  40.0809408  39.9790000
  69.3089408  40.3209408  40.8750000  68.1399408  39.8699408  40.0250000
  68.6629408  53.0849408  35.7270000  69.1639408  52.7029408  36.4480000
  69.3049408  53.2099408  35.0280000  62.7639408  40.3209408  45.9390000
  62.1979408  40.7929408  45.3280000  62.1579408  39.8679408  46.5260000
  63.7929408  35.9289408  48.5460000  64.5359408  35.3939408  48.2680000
  63.0419408  35.5539408  48.0850000  67.2649408  35.4869408  40.7700000
  66.6499408  36.0649408  40.3180000  67.6409408  34.9459408  40.0760000
  64.4899408  34.3149408  38.6110000  63.8189408  33.6769408  38.8510000
  64.7519408  34.0669408  37.7250000  78.2059408  41.1969408  41.0920000
  78.7899408  41.1579408  40.3350000  77.3289408  41.0939408  40.7250000
  72.6159408  32.7419408  32.6460000  72.2479408  33.1119408  31.8440000
  73.2749408  33.3789408  32.9240000  83.6789408  49.2509408  55.6230000
  82.9449408  48.9459408  56.1550000  84.0749408  49.9529408  56.1400000
  63.9959408  40.0319408  49.2360000  64.7059408  39.4889408  48.8920000
  64.1359408  40.8909408  48.8370000  73.6049408  39.6929408  33.1680000
  74.0819408  38.9459408  33.5280000  74.2209408  40.4239408  33.2310000
  70.6809408  41.2849408  30.4750000  70.9629408  41.9649408  29.8630000
  70.5939408  41.7389408  31.3140000  66.1979408  58.7859408  37.3920000
  65.6229408  59.3219408  37.9370000  66.9389408  59.3569408  37.1890000
  75.6389408  36.6119408  38.9870000  75.6199408  36.6119408  39.9440000
  76.5409408  36.8459408  38.7660000  76.1629408  50.3279408  39.8410000
  75.8969408  50.1039408  38.9500000  75.7949408  49.6309408  40.3840000
  78.8369408  49.6889408  43.6890000  79.6529408  49.8079408  44.1740000
  79.0429408  49.9709408  42.7980000  67.3569408  44.9479408  44.1060000
  66.7409408  44.6609408  44.7800000  67.7119408  44.1349408  43.7450000
  82.1589408  41.9809408  38.6940000  82.2029408  42.9319408  38.6020000
  82.8179408  41.6489408  38.0840000  61.5759408  31.8369408  42.3790000
  61.6699408  31.3979408  41.5340000  61.7809408  32.7539408  42.1980000
  69.7979408  43.5629408  50.7020000  69.9119408  42.6129408  50.6900000
  70.2249408  43.8659408  49.9000000  65.8779408  41.1339408  58.3530000
  66.6849408  41.2089408  58.8610000  65.1959408  40.9759408  59.0060000
  72.6309408  43.1459408  44.3340000  72.2629408  43.3379408  43.4710000
  72.9819408  42.2589408  44.2530000  70.1429408  38.5439408  32.9460000
  70.7999408  38.6049408  32.2530000  70.5939408  38.8529408  33.7320000
  64.7069408  45.4199408  53.1280000  64.5639408  45.8999408  52.3120000
  64.9709408  46.0909408  53.7570000  62.9149408  46.4549408  44.3630000
  63.5279408  47.1049408  44.7050000  62.2449408  46.3749408  45.0420000
  69.9729408  31.6209408  39.1660000  70.8859408  31.7839408  38.9290000
  70.0159408  31.2549408  40.0490000  72.5159408  39.3919408  37.0440000
  72.9239408  38.9559408  36.2950000  72.6179408  38.7729408  37.7670000
  80.6819408  44.5549408  40.8580000  80.4699408  44.9719408  41.6930000
  79.8309408  44.3559408  40.4670000  78.2509408  40.8129408  57.5970000
  77.9399408  40.8729408  56.6940000  79.1989408  40.9269408  57.5330000
  65.0659408  42.1979408  48.1450000  65.8319408  41.7159408  47.8330000
  64.6889408  42.5859408  47.3550000  64.4699408  36.9909408  51.0950000
  64.3759408  36.7169408  50.1820000  64.4599408  37.9469408  51.0610000
  76.7989408  38.8369408  51.9130000  76.1259408  38.2629408  51.5470000
  77.3839408  38.2479408  52.3890000  77.3339408  31.3149408  47.3720000
  77.1459408  32.1649408  47.7700000  76.5919408  30.7639408  47.6200000
  64.3569408  54.6489408  43.1330000  65.1819408  55.0809408  42.9100000
  63.8739408  55.2999408  43.6410000  66.0859408  44.8579408  41.4430000
  65.4669408  45.3769408  40.9300000  65.9959408  45.1919408  42.3360000
  73.4409408  46.1729408  38.5040000  73.3789408  45.9409408  37.5780000
  72.7799408  46.8539408  38.6260000  68.5019408  34.1379408  38.6120000
  68.8629408  34.4539408  37.7840000  68.9809408  33.3279408  38.7890000
  65.8979408  56.1729408  45.7840000  64.9769408  56.4009408  45.6590000
  66.2559408  56.1269408  44.8980000  64.1719408  38.0399408  36.5580000
  63.5999408  38.3309408  37.2680000  64.3229408  38.8259408  36.0330000
  80.9309408  38.1219408  47.8530000  80.4899408  38.4399408  48.6410000
  81.2959408  38.9089408  47.4480000  63.5469408  59.1949408  44.3880000
  63.4529408  58.7309408  43.5560000  64.0779408  59.9629408  44.1760000
  67.6459408  45.5889408  30.5610000  68.1379408  44.9059408  31.0160000
  68.1499408  46.3889408  30.7110000  69.7719408  32.8839408  35.6410000
  70.6209408  32.7349408  36.0590000  69.7999408  32.3549408  34.8440000
  69.0259408  46.3989408  45.6100000  68.7289408  46.0099408  46.4320000
  68.4029408  46.0809408  44.9560000  84.9449408  40.7089408  52.4340000
  84.4059408  40.1399408  52.9830000  84.3479408  41.3989408  52.1430000
  72.9919408  36.0789408  50.9050000  73.2669408  36.9929408  50.8340000
  73.4549408  35.7489408  51.6750000  73.9919408  40.0189408  59.0960000
  74.7189408  39.4589408  59.3680000  74.3539408  40.5539408  58.3890000
  75.0069408  37.1169408  58.0480000  75.2319408  37.0419408  58.9750000
  74.1499408  36.6969408  57.9740000  79.7759408  47.0209408  36.7930000
  79.6259408  47.7959408  36.2530000  79.1299408  47.0889408  37.4960000
  84.9269408  45.3199408  39.5870000  85.3159408  44.5869408  40.0650000
  85.3279408  45.2809408  38.7190000  65.7419408  41.5499408  42.2860000
  65.5099408  41.7689408  43.1890000  66.5849408  41.9799408  42.1450000
  89.0709408  32.3679408  43.5800000  89.1899408  32.7229408  44.4610000
  89.9599408  32.2269408  43.2550000  75.3469408  37.8619408  43.5700000
  75.5059408  37.1419408  42.9600000  76.2199408  38.1279408  43.8590000
  61.1999408  47.8119408  59.4490000  61.9049408  48.0979408  60.0290000
  61.6469408  47.3699408  58.7280000  62.4759408  43.4329408  41.5170000
  62.9669408  43.3179408  42.3310000  62.3929408  44.3819408  41.4200000
  64.0809408  40.9719408  40.1910000  63.3579408  41.5829408  40.3280000
  64.6869408  41.1519408  40.9110000  62.4699408  32.2689408  39.4860000
  61.9209408  33.0069408  39.2190000  61.8819408  31.5139408  39.4670000
  63.0199408  46.0899408  41.5960000  62.9749408  46.1599408  42.5500000
  63.1089408  46.9939408  41.2930000  72.5739408  44.1909408  46.7410000
  72.6879408  43.7449408  45.9010000  73.3929408  44.6689408  46.8720000
  75.7109408  42.0629408  58.0250000  76.5479408  41.6029408  58.0980000
  75.9129408  42.9669408  58.2670000  69.4949408  45.9309408  33.8740000
  69.7659408  45.7989408  34.7830000  69.9059408  46.7569408  33.6190000
  68.0449408  48.2839408  47.2700000  67.8129408  47.5769408  47.8720000
  68.2419408  47.8409408  46.4450000  68.0199408  31.0509408  44.0630000
  68.1869408  31.8039408  43.4960000  68.5849408  31.1939408  44.8240000
  72.3299408  53.4389408  34.0320000  71.5709408  52.9229408  33.7610000
  73.0749408  53.0059408  33.6160000  63.8559408  58.2669408  36.1100000
  63.5329408  59.1219408  35.8250000  64.7399408  58.4389408  36.4320000
  62.1229408  52.1309408  47.8600000  62.8419408  51.8089408  47.3180000
  62.3069408  53.0629408  47.9750000  78.9909408  38.3469408  35.9690000
  79.9089408  38.3779408  36.2400000  78.8449408  37.4349408  35.7200000
  65.8029408  46.0779408  34.3120000  66.5949408  45.6419408  33.9980000
  65.6179408  45.6609408  35.1540000  75.6349408  41.6509408  33.7230000
  76.4549408  41.1739408  33.8460000  75.4639408  42.0589408  34.5730000
  73.6209408  45.0579408  41.2560000  72.8359408  45.3699408  41.7060000
  73.5009408  45.3309408  40.3470000  66.7349408  40.4089408  46.9120000
  67.6709408  40.2119408  46.8740000  66.3309408  39.5979408  47.2210000
  69.1019408  49.7299408  52.1000000  69.8669408  49.3959408  51.6300000
  69.3469408  50.6199408  52.3550000  68.8879408  50.4159408  31.5990000
  68.2829408  49.7779408  31.9770000  68.7719408  51.2019408  32.1330000
  73.4439408  30.5639408  35.1250000  74.2609408  30.5429408  35.6220000
  73.7179408  30.5099408  34.2090000  68.1309408  47.3219408  39.6840000
  68.1119408  48.2399408  39.4110000  67.9969408  47.3509408  40.6310000
  71.8609408  38.8709408  30.8180000  71.4729408  39.7019408  30.5460000
  72.8049408  39.0259408  30.7920000  74.0549408  50.7059408  49.8650000
  73.1819408  50.5199408  50.2090000  74.1139408  50.1809408  49.0660000
  68.7819408  44.8269408  40.5120000  67.8989408  44.6719408  40.8490000
  68.7299408  45.6859408  40.0920000  85.7759408  45.5769408  45.5950000
  86.5949408  45.4519408  45.1160000  85.8309408  44.9639408  46.3280000
  74.7319408  35.0299408  36.7360000  75.2879408  34.2539408  36.6670000
  75.2679408  35.6689408  37.2060000  74.7409408  48.3739408  58.8420000
  75.0239408  49.2489408  58.5730000  75.2609408  48.1829408  59.6220000
  74.8019408  45.4929408  46.8610000  74.9129408  46.3009408  46.3600000
  75.6729408  45.3059408  47.2110000  67.7279408  43.2519408  56.7680000
  67.4999408  42.7349408  57.5410000  68.4259408  43.8349408  57.0650000
  78.8059408  48.6449408  59.5420000  79.1739408  47.7629408  59.4910000
  79.4979408  49.2139408  59.2050000  87.4529408  42.4809408  42.6510000
  86.9679408  41.6609408  42.7380000  88.3159408  42.2169408  42.3320000
  79.8039408  40.9529408  38.8190000  80.7069408  41.2619408  38.7410000
  79.2889408  41.5889408  38.3220000  73.6759408  42.0399408  38.3110000
  72.9579408  42.4469408  38.7970000  73.3909408  41.1369408  38.1740000
  64.4319408  29.9699408  39.1520000  64.9539408  30.3289408  39.8690000
  63.7079408  30.5879408  39.0490000  63.1979408  45.2869408  37.9950000
  62.5999408  45.4139408  37.2590000  62.7259408  44.7069408  38.5910000
  73.4919408  40.2479408  45.4210000  74.1179408  40.9619408  45.5410000
  74.0109408  39.5349408  45.0460000  88.8019408  36.7519408  45.1170000
  88.5949408  36.3399408  44.2790000  87.9779408  37.1509408  45.3980000
  66.3509408  42.5299408  50.8020000  65.7639408  42.6359408  50.0530000
  66.8079408  43.3679408  50.8690000  62.1939408  32.4329408  45.0200000
  61.9859408  32.0149408  44.1840000  62.7589408  33.1699408  44.7850000
  80.3539408  31.1919408  44.3940000  81.2449408  31.0649408  44.0680000
  80.3279408  32.1089408  44.6690000  72.9529408  48.1909408  34.7110000
  72.8259408  48.4779408  35.6150000  73.8859408  48.3269408  34.5450000
  71.2079408  43.2309408  39.6310000  71.4929408  43.1859408  40.5430000
  70.4689408  43.8389408  39.6400000  65.2889408  46.5969408  31.2440000
  66.1979408  46.4009408  31.4730000  65.0949408  46.0109408  30.5130000
  65.9609408  31.2959408  40.8390000  66.7089408  31.8909408  40.8830000
  65.2019408  31.8499408  41.0230000  74.0369408  39.3019408  40.0320000
  73.0859408  39.2279408  39.9500000  74.3769408  38.5189408  39.5980000
  73.8409408  45.9929408  49.9150000  73.3829408  45.6059408  49.1690000
  74.1529408  46.8389408  49.5910000  77.9259408  43.8949408  44.1400000
  76.9729408  43.9149408  44.2200000  78.2449408  44.1439408  45.0080000
  77.9639408  34.7779408  30.3340000  77.0519408  35.0459408  30.4500000
  78.1979408  34.3589408  31.1630000  66.0819408  41.7559408  33.1260000
  65.2619408  42.2489408  33.0890000  66.7199408  42.3779408  33.4750000
  80.7849408  41.9599408  47.6010000  81.3309408  41.2469408  47.2700000
  80.9109408  42.6709408  46.9720000  76.0959408  40.7469408  39.5820000
  75.3069408  40.3579408  39.9590000  76.3329408  40.1619408  38.8630000
  71.8799408  41.9409408  33.1400000  71.5959408  41.9629408  34.0530000
  72.2839408  41.0799408  33.0340000  70.6029408  48.1769408  42.3180000
  69.6709408  48.0139408  42.4610000  70.6839408  49.1309408  42.3230000
  76.8019408  50.5669408  45.9690000  77.5409408  49.9729408  45.8380000
  76.7199408  51.0359408  45.1380000  66.3819408  33.8779408  36.2780000
  66.8239408  34.1609408  37.0780000  66.7769408  34.4079408  35.5850000
  77.8219408  40.6709408  54.7140000  77.0509408  40.2079408  54.3860000
  78.5589408  40.2549408  54.2680000  80.9929408  46.8169408  31.4860000
  81.3499408  47.6909408  31.3270000  80.4049408  46.9299408  32.2320000
  87.1529408  43.0869408  46.5300000  87.5009408  42.5009408  47.2020000
  86.4709408  42.5749408  46.0950000  88.4819408  40.9349408  39.6410000
  88.8959408  41.1749408  40.4700000  88.9019408  41.4979408  38.9910000
  74.8989408  56.5689408  38.8670000  74.8359408  56.8249408  39.7880000
  74.8469408  55.6129408  38.8800000  66.4319408  39.2409408  39.6680000
  65.6539408  39.7959408  39.6110000  66.1929408  38.4429408  39.1960000
  77.9739408  40.1959408  34.3400000  78.5639408  40.9399408  34.4650000
  78.2259408  39.5729408  35.0210000  74.5639408  41.3319408  42.5050000
  75.3129408  41.9219408  42.4160000  74.8419408  40.5249408  42.0710000
  65.8949408  49.3489408  40.4970000  65.2319408  49.5939408  41.1420000
  65.4229408  48.8129408  39.8600000  70.5329408  34.8369408  41.0850000
  70.4469408  35.5079408  40.4070000  71.3799408  35.0149408  41.4930000
  68.3729408  53.4639408  43.1860000  69.1639408  53.9339408  42.9220000
  67.6539408  53.9979408  42.8490000  68.0019408  43.8009408  34.2870000
  68.6839408  44.4149408  34.0160000  67.9259408  43.9279408  35.2330000
  68.5919408  50.0079408  41.6570000  67.6919408  49.6829408  41.6220000
  68.5009408  50.9549408  41.7650000  68.5059408  59.5499408  34.7200000
  69.2599408  59.8159408  34.1930000  68.6619408  59.9459408  35.5770000
  64.0379408  57.2559408  39.9530000  64.9729408  57.0479408  39.9550000
  63.9999408  58.1869408  39.7350000  77.8569408  35.7969408  36.3200000
  78.7739408  35.6119408  36.1180000  77.3679408  35.4069408  35.5960000
  84.8209408  37.4299408  38.6100000  84.9309408  36.7309408  37.9650000
  85.4989408  38.0679408  38.3900000  69.6499408  41.8419408  37.8760000
  70.4039408  42.2779408  38.2730000  69.2779408  41.3139408  38.5820000
  77.8409408  41.3329408  51.0730000  77.5779408  40.4969408  51.4570000
  77.0239408  41.8229408  50.9800000  76.4069408  33.6289408  49.0480000
  77.1099408  34.2789408  49.0450000  76.1969408  33.5069408  49.9740000
  71.6449408  38.1269408  53.6070000  71.9199408  37.4939408  54.2710000
  71.9309408  38.9729408  53.9510000  78.3389408  38.6359408  47.0160000
  78.1949408  39.4509408  47.4970000  79.2549408  38.4159408  47.1850000
  67.8239408  39.7049408  31.9020000  68.6989408  39.3949408  32.1340000
  67.3699408  39.7939408  32.7400000  67.4669408  39.5539408  56.4890000
  67.0789408  40.1509408  57.1290000  67.8689408  40.1279408  55.8380000
  73.4879408  38.3599408  47.7820000  72.5719408  38.4729408  48.0380000
  73.7179408  39.1799408  47.3450000  87.1329408  43.4899408  36.5760000
  86.2129408  43.7239408  36.4540000  87.5309408  44.2739408  36.9540000
  65.3919408  39.8369408  51.5440000  64.4879408  40.0839408  51.7380000
  65.8819408  40.6569408  51.5990000  75.6989408  43.6459408  51.5090000
  74.9289408  44.2119408  51.4530000  75.7449408  43.3939408  52.4310000
  65.3759408  35.8509408  34.5400000  65.9379408  36.5929408  34.3170000
  65.1269408  36.0039408  35.4520000  81.4999408  50.8909408  51.6630000
  81.5299408  51.8449408  51.5890000  81.2169408  50.5929408  50.7990000
  76.1989408  42.7839408  54.3270000  76.9519408  42.3809408  54.7590000
  75.5079408  42.1229408  54.3830000  80.3079408  42.6819408  51.5200000
  79.5659408  42.7069408  52.1230000  80.0339408  43.2229408  50.7790000
  83.5869408  41.2759408  33.3410000  82.6949408  41.6219408  33.3230000
  84.1119408  41.9439408  32.9000000  67.8799408  56.0279408  53.7110000
  68.5289408  56.2299408  53.0370000  67.0729408  55.8609408  53.2240000
  78.4169408  44.7709408  50.7260000  78.8399408  45.1919408  51.4750000
  77.5249408  44.5919408  51.0240000  74.9759408  45.1649408  53.9550000
  75.6309408  45.7189408  53.5300000  75.4869408  44.4979408  54.4130000
  80.1269408  47.4139408  47.2570000  80.8569408  48.0169408  47.1180000
  80.2649408  47.0689408  48.1390000  77.7229408  39.0149408  44.5310000
  78.2079408  39.8399408  44.5330000  77.7629408  38.7109408  45.4380000
  77.0589408  34.2909408  33.6940000  77.3229408  33.4279408  34.0130000
  76.3329408  34.1129408  33.0950000  72.1429408  43.0499408  53.4810000
  72.7959408  43.1569408  52.7890000  71.8279408  43.9369408  53.6530000
  69.2999408  34.7489408  46.6790000  68.4779408  34.7659408  46.1890000
  69.0309408  34.7099408  47.5970000  70.2849408  39.8869408  42.5980000
  70.8409408  39.1149408  42.4900000  70.1829408  39.9779408  43.5460000
  71.5199408  40.6549408  54.6330000  71.7749408  41.4879408  54.2350000
  70.7539408  40.3749408  54.1320000  88.8309408  37.2719408  32.2880000
  88.8699408  36.9779408  33.1980000  89.5399408  36.7969408  31.8530000
  72.8319408  36.0959408  55.8560000  72.2219408  36.7999408  56.0740000
  72.2899408  35.4319408  55.4300000  82.0739408  39.3869408  59.4840000
  82.9599408  39.0269408  59.4310000  81.4999408  38.6319408  59.3590000
  77.8369408  35.8009408  48.3520000  78.7399408  35.6199408  48.0890000
  77.7859408  36.7559408  48.3950000  75.8959408  49.4069408  54.8660000
  75.5879408  48.8379408  55.5710000  76.8499408  49.3899408  54.9430000
  72.3099408  47.8379408  48.4750000  71.5999408  47.7869408  47.8350000
  72.9599408  48.4099408  48.0670000  81.5769408  40.0929408  43.5580000
  80.8019408  40.5149408  43.9290000  81.6999408  40.5189408  42.7100000
  63.0429408  42.8729408  55.6090000  63.5349408  42.7249408  54.8020000
  62.7319408  42.0039408  55.8640000  74.6799408  59.2389408  56.7010000
  75.3729408  59.7719408  56.3100000  74.3379408  59.7769408  57.4150000
  65.6739408  53.6199408  30.0820000  66.0949408  53.8689408  30.9050000
  66.3839408  53.2649408  29.5480000  63.0279408  48.2679408  31.4330000
  63.1569408  49.2159408  31.4620000  63.8729408  47.9189408  31.1520000
  65.6639408  38.1749408  48.2520000  66.2629408  37.8789408  48.9380000
  65.1889408  37.3859408  47.9920000  65.9109408  36.2639408  53.1760000
  65.8639408  35.3079408  53.1610000  65.2579408  36.5469408  52.5370000
  63.5549408  42.7819408  33.2750000  62.7219408  42.4139408  33.5720000
  63.4619408  43.7249408  33.4110000  72.0799408  32.2879408  55.6550000
  71.8949408  32.3419408  56.5920000  71.6749408  33.0719408  55.2840000
  63.4729408  39.6029408  57.1470000  63.7089408  38.7169408  56.8730000
  64.0979408  39.8149408  57.8400000  80.1159408  33.8369408  45.0270000
  80.6079408  34.5009408  44.5440000  79.2639408  33.8059408  44.5920000
  69.1499408  59.6889408  52.5040000  69.9349408  60.2339408  52.5540000
  69.1679408  59.3219408  51.6200000  70.2899408  46.9219408  56.2360000
  70.6129408  46.3839408  55.5120000  70.5349408  47.8159408  55.9980000
  65.6959408  36.5609408  57.9650000  66.2729408  36.7839408  57.2350000
  66.2299408  36.7069408  58.7460000  69.0229408  40.0999408  53.4030000
  68.3649408  40.6929408  53.7660000  68.5369408  39.3039408  53.1870000
  62.6359408  39.1879408  42.6550000  62.1249408  39.8089408  43.1730000
  61.9839408  38.6069408  42.2650000  70.1199408  31.7629408  33.4120000
  69.5699408  31.8339408  32.6310000  70.9739408  32.0939408  33.1340000
  75.5569408  55.5499408  56.2860000  74.8219408  54.9969408  56.0220000
  76.0899408  55.6339408  55.4950000  67.1549408  37.1399408  55.5410000
  66.6739408  37.0259408  54.7220000  67.2739408  38.0859408  55.6200000
  74.3109408  40.8199408  55.0000000  73.4729408  40.6859408  54.5580000
  74.6099408  39.9379408  55.2200000  84.7679408  36.0699408  47.1460000
  83.8289408  36.0299408  46.9640000  85.1819408  35.7409408  46.3480000
  65.1569408  41.4689408  45.1180000  64.3929408  41.0489408  45.5120000
  65.9069408  41.0229408  45.5130000  76.3049408  47.8459408  48.6500000
  76.4699408  48.5339408  48.0040000  76.6669408  47.0539408  48.2540000
  71.4229408  31.4139408  52.3640000  71.7979408  31.2949408  53.2370000
  72.1729408  31.6199408  51.8060000  64.3739408  32.0349408  52.5920000
  65.0449408  32.5869408  52.9950000  63.7539408  32.6539408  52.2080000
  67.8019408  46.5439408  37.0640000  67.6149408  45.6139408  37.1890000
  67.8329408  46.9049408  37.9500000  69.5459408  44.8449408  57.9910000
  69.9689408  45.6099408  57.6000000  69.0599408  45.1949408  58.7380000
  61.7749408  30.6259408  58.9360000  62.5749408  31.0719408  59.2140000
  61.1079408  31.3129408  58.9280000  72.7309408  42.2139408  48.9580000
  72.2289408  41.4239408  48.7610000  72.6519408  42.7509408  48.1690000
  63.0389408  57.9559408  58.5700000  63.2659408  57.7619408  57.6600000
  62.9049408  58.9029408  58.5870000  68.8229408  49.2789408  58.8730000
  69.0599408  48.7649408  59.6450000  68.2279408  49.9509408  59.2050000
  70.8119408  34.5099408  54.7060000  69.9129408  34.5729408  55.0290000
  70.7219408  34.4639408  53.7540000  68.1589408  41.4079408  59.5170000
  69.1069408  41.5379408  59.5250000  67.9899408  40.8219408  60.2550000
  67.4109408  38.2469408  52.5390000  67.0039408  37.3889408  52.6570000
  66.8979408  38.6629408  51.8460000  65.9589408  32.4859408  59.6520000
  65.4029408  32.4139408  60.4270000  65.4749408  32.0279408  58.9650000
  88.9339408  29.9049408  57.3680000  89.3039408  30.6489408  57.8430000
  89.4589408  29.8439408  56.5700000  78.8269408  33.5309408  52.3500000
  78.8589408  32.6169408  52.6340000  79.3369408  33.5479408  51.5400000
  73.0339408  44.4019408  33.2410000  73.4299408  44.6769408  32.4150000
  72.6019408  43.5729408  33.0360000  74.6579408  31.6439408  54.3280000
  75.2989408  31.5509408  55.0330000  73.8909408  32.0299408  54.7510000
  69.2199408  40.8319408  50.8010000  68.2959408  40.9889408  50.6070000
  69.2279408  40.5439408  51.7140000  68.1889408  47.1529408  53.5900000
  69.0689408  47.0679408  53.9560000  67.9749408  48.0809408  53.6910000
  90.1159408  38.1649408  41.4220000  90.1929408  37.2509408  41.1470000
  89.2939408  38.4639408  41.0340000  81.0649408  39.6399408  32.0140000
  81.5329408  39.0169408  32.5690000  81.5449408  39.6309408  31.1850000
  64.8949408  48.8529408  36.4910000  65.2919408  49.6979408  36.7040000
  65.4089408  48.5259408  35.7530000  60.8779408  59.1329408  31.2170000
  61.1779408  59.6449408  30.4660000  61.0379408  58.2229408  30.9670000
  66.9089408  34.5699408  45.4710000  66.4269408  35.1219408  44.8560000
  66.2819408  34.3849408  46.1700000  75.2509408  38.2789408  55.3330000
  74.5369408  37.6459408  55.4040000  75.7219408  38.2039408  56.1630000
  76.1519408  46.8349408  36.9130000  75.4469408  46.5409408  36.3350000
  75.7099408  47.0769408  37.7270000  61.6169408  39.6609408  55.2060000
  62.3259408  39.5369408  55.8370000  62.0529408  39.9679408  54.4120000
  75.4429408  30.1609408  43.2290000  76.1079408  29.5109408  43.4580000
  75.5879408  30.8799408  43.8430000  84.0269408  49.3799408  51.4100000
  84.2849408  48.4959408  51.6720000  83.1719408  49.5119408  51.8210000
  74.3959408  48.1949408  40.7400000  74.3709408  48.1429408  41.6950000
  74.2869408  47.2889408  40.4480000  65.1149408  34.0059408  56.8730000
  64.1869408  34.1409408  56.6820000  65.3489408  34.7299408  57.4530000
  64.5679408  42.7609408  53.3450000  64.5269408  43.7069408  53.4870000
  64.8839408  42.6679408  52.4460000  81.5419408  32.2789408  54.3060000
  81.1949408  32.1159408  53.4290000  81.4429408  31.4439408  54.7630000
  74.6329408  53.1429408  40.1660000  74.8209408  53.6079408  39.3500000
  74.7559408  52.2189408  39.9490000  75.3159408  42.0549408  46.3340000
  74.9349408  42.8129408  46.7780000  76.1729408  41.9419408  46.7450000
  82.2929408  47.8109408  53.8080000  82.1829408  47.0259408  54.3450000
  82.7159408  48.4419408  54.3890000  69.7159408  47.2639408  30.6440000
  70.4809408  46.8889408  30.2080000  70.0779408  47.7609408  31.3780000
  69.6429408  57.8269408  54.9720000  69.4569408  57.5769408  54.0670000
  70.3899408  58.4219408  54.9080000  67.2109408  41.8149408  54.3940000
  66.3699408  42.1359408  54.0660000  67.5599408  42.5409408  54.9100000
  60.1669408  38.8079408  50.3710000  59.8829408  38.0049408  50.8070000
  59.9809408  39.5029408  51.0020000  71.3649408  39.9299408  48.7550000
  70.7509408  39.2719408  48.4300000  71.2129408  39.9549408  49.7000000
  74.3869408  50.9349408  31.0510000  73.5169408  51.2199408  30.7720000
  74.8489408  50.7409408  30.2360000  70.7769408  39.9669408  45.3550000
  71.7099408  40.1599408  45.2610000  70.7469408  39.1889408  45.9110000
  63.5569408  37.1909408  56.0440000  64.3569408  36.6719408  56.1280000
  63.4109408  37.2549408  55.1000000  79.8279408  45.7489408  43.0870000
  80.5869408  45.7009408  43.6680000  79.2939408  44.9909408  43.3260000
  60.9909408  44.1799408  59.6390000  61.5389408  44.9439408  59.4570000
  60.9489408  44.1369408  60.5940000  71.3459408  43.1939408  58.8840000
  70.7059408  43.7409408  58.4290000  71.9039408  42.8469408  58.1880000
  88.4329408  31.3169408  47.7720000  88.3759408  30.3929408  48.0160000
  88.3789408  31.7879408  48.6040000  76.9629408  46.6139408  52.6300000
  76.8069408  47.5369408  52.8310000  77.8629408  46.5879408  52.3060000
  86.9299408  41.9079408  31.8610000  86.9209408  42.4829408  32.6270000
  87.6339408  41.2839408  32.0360000  75.8339408  33.3109408  31.4930000
  76.3929408  32.5349408  31.4550000  75.4889408  33.4019408  30.6050000
  60.8749408  33.4179408  53.9600000  60.5559408  32.5409408  53.7490000
  61.6379408  33.5389408  53.3940000  73.8929408  49.7199408  47.2500000
  73.8199408  50.5249408  46.7370000  74.7049408  49.3139408  46.9450000
  70.5189408  37.1779408  45.9270000  70.5439408  36.3239408  46.3590000
  70.1409408  36.9999408  45.0660000  75.5579408  34.1889408  56.1150000
  74.8629408  34.8469408  56.1260000  75.7909408  34.1009408  55.1910000
  69.3779408  38.0839408  58.2570000  68.8019408  38.1769408  57.4980000
  70.1869408  38.5259408  58.0000000  67.9469408  37.0969408  49.7360000
  67.9239408  36.1409408  49.7090000  68.7869408  37.3059408  50.1460000
  76.8989408  59.9439408  35.6780000  76.7499408  59.2089408  36.2740000
  76.6159408  59.6199408  34.8230000  69.8299408  57.2289408  35.4010000
  68.9329408  57.4469408  35.1470000  70.3679408  57.5429408  34.6740000
  78.4289408  59.3959408  58.3290000  77.9429408  58.5779408  58.2260000
  78.7299408  59.3839408  59.2380000  61.1219408  36.0539408  39.6410000
  60.6489408  36.3209408  38.8530000  61.9209408  36.5809408  39.6320000
  71.1519408  52.9069408  50.7830000  71.1849408  51.9589408  50.9060000
  70.5209408  53.0349408  50.0740000  71.0869408  55.7069408  37.3250000
  70.8939408  56.1889408  38.1280000  70.7599408  56.2699408  36.6230000
  62.6749408  48.7829408  40.9760000  63.1839408  49.3299408  41.5740000
  63.0549408  48.9529408  40.1140000  73.9669408  45.5319408  35.7910000
  74.1179408  44.5939408  35.6770000  73.3829408  45.7699408  35.0710000
  62.1679408  34.6769408  42.0900000  61.6919408  35.0179408  41.3330000
  61.8439408  35.1909408  42.8290000  69.7219408  58.0699408  38.6160000
  69.4219408  58.0619408  37.7080000  69.1469408  58.6979408  39.0530000
  71.7279408  50.3879408  51.2710000  71.6209408  49.5149408  50.8940000
  72.3419408  50.2629408  51.9960000  88.0529408  55.8899408  42.2050000
  88.2489408  56.7309408  42.6180000  87.0989408  55.8779408  42.1250000
  73.8599408  36.7389408  32.4700000  73.0679408  37.2019408  32.1940000
  73.5509408  36.0939408  33.1060000  64.9999408  59.5199408  48.2440000
  65.1339408  59.6689408  49.1800000  64.6149408  60.3359408  47.9240000
  70.5059408  49.8669408  36.1100000  69.8559408  49.5139408  35.5030000
  69.9949408  50.3779408  36.7380000  73.0909408  35.1259408  34.6640000
  73.6829408  35.1169408  35.4160000  72.3979408  34.5079408  34.8970000
  63.3269408  54.6049408  49.3680000  64.2059408  54.2289408  49.3230000
  63.4169408  55.4729408  48.9750000  60.0379408  51.4779408  34.6990000
  60.9309408  51.1549408  34.5830000  59.4899408  50.8369408  34.2450000
  75.7609408  55.8819408  34.7460000  75.6409408  55.0999408  34.2060000
  74.9199408  55.9989408  35.1890000  74.2179408  50.3289408  43.1910000
  74.4609408  51.2159408  42.9250000  75.0449408  49.9189408  43.4450000
  77.6079408  51.4719408  51.4500000  77.1129408  52.1989408  51.8280000
  77.2049408  50.6879408  51.8230000  72.8429408  54.9729408  51.9030000
  72.4879408  54.2539408  51.3800000  73.3269408  55.5089408  51.2750000
  64.6779408  52.4899408  46.5850000  65.2769408  53.2359408  46.6160000
  65.2109408  51.7439408  46.8610000  65.7979408  51.3969408  36.7650000
  66.4539408  51.7799408  37.3470000  64.9819408  51.4349408  37.2640000
  90.0089408  51.9419408  59.8560000  89.3139408  52.0199408  60.5100000
  89.9439408  51.0409408  59.5420000  62.3099408  48.7869408  35.5240000
  61.6629408  48.6259408  36.2120000  63.1549408  48.6519408  35.9530000
  74.3059408  58.7819408  37.3720000  74.7559408  58.1469408  37.9280000
  73.9669408  58.2639408  36.6420000  84.3189408  54.7159408  44.1060000
  84.8969408  53.9829408  43.8980000  84.5489408  55.3919408  43.4680000
  66.4959408  48.9039408  32.3800000  65.9039408  49.5189408  31.9470000
  65.9969408  48.0889408  32.4350000  65.8519408  57.3879408  59.9390000
  65.2559408  57.5509408  59.2070000  65.3619408  56.8089408  60.5230000
  76.4369408  49.0669408  51.2430000  76.5039408  48.3559408  50.6060000
  75.6939408  49.5899408  50.9420000  67.2649408  53.0889408  33.3920000
  67.5729408  53.8519408  32.9040000  67.6459408  53.1919408  34.2640000
  70.3759408  53.4779408  47.1180000  69.6279408  53.2069408  47.6500000
  70.5139408  52.7509408  46.5100000  69.1669408  35.4379408  35.7480000
  68.8509408  35.6709408  34.8750000  69.4189408  34.5179408  35.6750000
  64.2729408  50.1469408  42.5690000  63.8439408  50.9559408  42.8460000
  65.0339408  50.0699408  43.1450000  63.2469408  45.4839408  33.2100000
  63.6359408  46.1419408  32.6340000  63.7999408  45.4919408  33.9910000
  64.1789408  47.7809408  38.9290000  64.2309408  48.1619408  38.0530000
  63.5919408  47.0319408  38.8310000  71.2709408  59.4239408  30.7540000
  71.1439408  59.1009408  29.8620000  70.7259408  60.2099408  30.8040000
  70.1639408  44.3359408  47.9330000  69.7059408  43.4989408  47.8530000
  70.9369408  44.2409408  47.3770000  66.7049408  54.8669408  37.0240000
  67.3139408  54.3839408  36.4660000  66.0519408  55.2189408  36.4190000
  60.7809408  47.7779408  33.0700000  61.3749408  47.8329408  33.8190000
  61.3059408  48.0689408  32.3250000  66.9129408  56.0559408  43.0170000
  66.7609408  56.9919408  43.1450000  67.8609408  55.9539408  43.1010000
  69.9689408  55.5049408  41.5150000  70.0609408  56.2039408  42.1630000
  69.5309408  55.9229408  40.7730000  72.8559408  32.0519408  39.6080000
  73.6339408  31.5559408  39.8640000  72.6389408  32.5739408  40.3800000
  70.9059408  52.2719408  31.9450000  70.8709408  51.3879408  31.5790000
  70.4339408  52.8129408  31.3120000  60.6149408  44.7429408  32.4330000
  59.9859408  45.4539408  32.5520000  61.4659408  45.1429408  32.6100000
  75.8529408  53.8829408  37.9390000  75.9139408  53.7729408  36.9900000
  76.7569408  54.0099408  38.2250000  67.6779408  45.6369408  48.2270000
  67.3809408  45.6059408  49.1360000  68.4549408  45.0779408  48.2080000
  64.3649408  52.5619408  40.9050000  63.8259408  53.0119408  41.5560000
  65.0559408  53.1889408  40.6910000  71.6299408  53.2589408  41.2250000
  71.9139408  53.2529408  40.3110000  70.9499408  53.9319408  41.2610000
  63.3079408  52.3489408  44.1740000  63.6449408  53.1049408  43.6930000
  63.8179408  52.3319408  44.9840000  80.0859408  33.0319408  31.4180000
  80.4329408  32.3479408  30.8450000  79.2249408  32.7079408  31.6830000
  88.1769408  32.4219408  50.1510000  87.3749408  32.2089408  50.6290000
  88.4289408  33.2859408  50.4760000  60.9919408  29.9949408  55.7370000
  61.7769408  30.0659408  55.1940000  61.2419408  30.3889408  56.5730000
  60.7819408  46.6869408  45.9170000  60.1779408  46.2529408  46.5200000
  60.3069408  47.4619408  45.6180000  66.7389408  54.1779408  39.9850000
  66.8389408  55.0859408  40.2700000  66.8689408  54.2079408  39.0370000
  70.4329408  31.4439408  45.7220000  70.5989408  31.4719408  46.6650000
  70.7079408  32.3039408  45.4050000  71.3089408  49.2199408  55.3400000
  72.0399408  49.3309408  54.7320000  71.4799408  49.8519408  56.0380000
  63.3309408  49.3729408  48.2010000  62.4419408  49.5659408  48.5000000
  63.8949408  49.6769408  48.9110000  86.3379408  38.5209408  44.7070000
  85.9319408  39.3879408  44.7270000  85.5999408  37.9109408  44.7000000
  63.1059408  51.9459408  38.1800000  63.4189408  52.7029408  38.6760000
  62.1519408  52.0229408  38.2010000  75.4369408  53.2539408  50.0090000
  76.0059408  53.1119408  49.2530000  75.0009408  52.4129408  50.1430000
  67.0619408  51.4499408  39.2770000  67.2629408  52.2119408  39.8210000
  66.5489408  50.8769408  39.8470000  72.4839408  56.0199408  59.2340000
  72.1589408  55.9759408  60.1330000  71.7009408  56.1619408  58.7020000
  72.0659408  58.8869408  39.7040000  71.2279408  58.5389408  39.3980000
  72.5209408  59.1529408  38.9050000  70.8659408  48.4719408  32.7640000
  70.6719408  49.4039408  32.8690000  71.5619408  48.2989408  33.3990000
  73.6439408  30.4429408  31.8470000  72.8629408  30.2199408  31.3410000
  73.6489408  31.3999408  31.8730000  63.1739408  30.5829408  34.5740000
  64.1289408  30.6499408  34.5680000  62.8779408  31.4079408  34.9580000
  69.4209408  51.4549408  37.9740000  68.8169408  51.4819408  38.7160000
  70.2109408  51.8929408  38.2920000  88.8549408  53.9129408  40.4620000
  88.1329408  53.2899408  40.3720000  88.5459408  54.5469408  41.1090000
  69.8059408  45.8759408  51.7940000  68.8959408  46.1509408  51.9020000
  69.7489408  44.9669408  51.5000000  67.9939408  51.3219408  44.6600000
  68.8919408  51.3319408  44.9910000  67.9779408  52.0019408  43.9870000
  85.4639408  55.1709408  38.5830000  84.5769408  55.4189408  38.3240000
  85.9009408  54.9499408  37.7600000  84.4759408  50.8279408  49.0240000
  85.3199408  51.0919408  48.6570000  84.7019408  50.2359408  49.7420000
  68.2409408  49.7249408  55.2630000  68.0479408  49.1849408  56.0300000
  69.1959408  49.7239408  55.2030000  72.9509408  31.3049408  42.5350000
  73.5739408  30.6049408  42.7320000  72.1069408  30.9639408  42.8300000
  89.8429408  56.8959408  38.9490000  89.2369408  56.1979408  38.6960000
  90.4319408  56.4839408  39.5810000  73.2739408  56.0209408  35.5640000
  73.0779408  55.8549408  36.4860000  72.5129408  55.6839408  35.0920000
  67.9659408  53.2009408  54.6000000  68.6309408  52.7009408  54.1270000
  67.9549408  54.0549408  54.1660000  88.8189408  58.9629408  49.5480000
  89.3499408  58.7979408  50.3270000  87.9169408  58.8389408  49.8420000
  67.1999408  32.1849408  49.7970000  67.7519408  31.4189408  49.6400000
  66.4489408  31.8439408  50.2840000  76.6659408  42.2829408  31.1970000
  76.1439408  43.0379408  30.9240000  76.2319408  41.9649408  31.9890000
  74.5009408  42.8519408  35.8720000  74.3729408  42.6739408  36.8040000
  73.6179408  42.8409408  35.5020000  70.8959408  49.7499408  39.9370000
  70.1039408  49.8069408  40.4710000  71.6099408  49.9329408  40.5480000
  79.0259408  44.6979408  35.6060000  79.1789408  45.5409408  36.0320000
  78.8219408  44.0999408  36.3250000  69.7699408  52.6009408  56.6800000
  69.2829408  52.6389408  55.8560000  69.7329408  53.4939408  57.0220000
  87.3529408  30.3099408  42.8330000  87.5099408  29.6729408  43.5300000
  87.9369408  31.0399408  43.0390000  72.1129408  48.3489408  37.7370000
  71.7449408  48.5769408  38.5910000  71.5649408  48.8179408  37.1070000
  84.6629408  49.5749408  42.4850000  84.9049408  48.8659408  43.0800000
  84.1909408  49.1409408  41.7740000  61.4539408  59.7109408  45.8930000
  61.4329408  60.6619408  46.0040000  62.2849408  59.5399408  45.4500000
  66.8329408  50.5419408  47.8900000  67.4509408  49.8449408  47.6710000
  66.2749408  50.1639408  48.5700000  85.2199408  44.8659408  31.3530000
  85.3179408  44.0859408  30.8060000  84.4369408  45.3009408  31.0120000
  78.8679408  57.6099408  33.3490000  79.7269408  57.3279408  33.6620000
  78.2529408  57.2769408  34.0020000  68.3579408  34.1779408  31.8600000
  68.4489408  34.8209408  32.5630000  67.5369408  33.7239408  32.0540000
  71.2019408  58.7629408  33.4690000  71.2119408  59.5939408  33.9450000
  71.6049408  58.9659408  32.6240000  66.1329408  53.5059408  50.1000000
  66.3269408  53.2889408  49.1880000  66.9599408  53.8419408  50.4480000
  70.2109408  58.4339408  41.9620000  71.0079408  58.2959408  41.4500000
  70.5229408  58.6039408  42.8510000  77.3879408  52.3639408  57.4260000
  77.6389408  52.8729408  58.1970000  78.1209408  52.4709408  56.8190000
  61.6809408  58.4499408  37.5820000  62.3499408  57.9409408  37.1260000
  60.8959408  57.9039408  37.5440000  85.9239408  52.7609408  43.2040000
  85.7279408  52.7439408  42.2670000  86.0819408  51.8459408  43.4340000
  63.3539408  54.7089408  39.0660000  63.7559408  55.5449408  39.3010000
  62.5179408  54.9489408  38.6650000  61.4129408  56.7549408  30.3960000
  62.1889408  57.0679408  29.9310000  61.2349408  55.8959408  30.0140000
  89.6089408  57.8679408  45.3230000  90.1049408  57.1339408  44.9590000
  90.2649408  58.5469408  45.4810000  82.3659408  44.6299408  38.6880000
  81.7399408  44.6659408  39.4110000  83.1379408  45.0919408  39.0160000
  61.5119408  49.0599408  43.6060000  60.8219408  49.4449408  43.0660000
  62.0049408  48.5029408  43.0030000  63.9449408  56.8669408  48.1460000
  63.7629408  56.8199408  47.2080000  64.4529408  57.6719408  48.2510000
  73.2799408  52.0519408  45.6120000  72.3279408  51.9589408  45.6370000
  73.5199408  51.8259408  44.7140000  72.9559408  51.3659408  36.3640000
  73.4859408  51.8059408  35.6990000  72.4029408  50.7609408  35.8690000
  63.4409408  36.1809408  31.9050000  64.0029408  36.8479408  31.5100000
  63.9759408  35.7989408  32.6010000  77.0119408  53.5979408  30.0990000
  77.4669408  54.3679408  30.4400000  76.1409408  53.9179408  29.8630000
  67.1949408  52.4749408  58.1130000  66.6079408  52.3649408  57.3650000
  68.0739408  52.3999408  57.7400000  78.2589408  42.5979408  37.4360000
  77.7069408  41.9699408  36.9700000  77.6589408  43.0499408  38.0290000
  60.1369408  33.5589408  35.8370000  59.9919408  32.6449408  35.5950000
  60.0729408  33.5669408  36.7920000  75.3399408  50.8529408  58.1340000
  74.7079408  51.5289408  57.8920000  76.1799408  51.1839408  57.8140000
  79.9039408  30.2909408  56.3150000  79.3069408  30.0529408  57.0240000
  80.2959408  31.1169408  56.5980000  86.3759408  53.1479408  52.1470000
  85.9069408  53.8409408  51.6830000  87.2419408  53.1299408  51.7400000
  68.6959408  34.9359408  56.2190000  68.5659408  34.8349408  57.1620000
  67.9669408  35.4869408  55.9330000  65.0549408  30.9999408  57.6170000
  65.2369408  31.8089408  57.1400000  64.9239408  30.3429408  56.9330000
  72.6159408  52.0489408  54.5270000  72.7129408  51.7699408  55.4380000
  73.1399408  51.4229408  54.0270000  64.7479408  56.4299408  32.0810000
  64.8309408  55.7089408  32.7050000  63.9279408  56.8609408  32.3190000
  69.2759408  56.4629408  44.7030000  69.7309408  56.2569408  45.5190000
  69.1089408  57.4049408  44.7520000  83.3719408  59.3539408  46.9710000
  83.3079408  58.3989408  46.9860000  82.9949408  59.6059408  46.1290000
  76.2559408  53.4489408  52.4580000  75.9049408  53.5529408  51.5740000
  75.4959408  53.5559408  53.0320000  66.9949408  45.9949408  50.7340000
  66.4209408  45.7369408  51.4560000  66.9939408  46.9519408  50.7580000
  74.1419408  54.1589408  54.0840000  73.6309408  53.3779408  54.2940000
  73.5819408  54.6599408  53.4910000  73.5379408  46.9969408  52.3460000
  74.1009408  46.3869408  52.8230000  73.4289408  46.5979408  51.4830000
  73.4829408  49.4799408  53.5240000  73.6019408  48.6709408  53.0260000
  74.1959408  49.4769408  54.1620000  65.5179408  50.8639408  30.6340000
  64.6129408  50.9029408  30.3240000  65.8689408  51.7369408  30.4600000
  63.9199408  53.7329408  57.9040000  63.7749408  52.7969408  57.7640000
  64.6069408  53.7729408  58.5690000  83.3409408  55.3679408  56.2690000
  83.8739408  55.7849408  55.5910000  82.6439408  55.9989408  56.4470000
  81.0999408  57.1969408  56.2780000  80.7519408  57.3389408  55.3980000
  81.3499408  58.0699408  56.5810000  71.6579408  59.4879408  55.1230000
  71.5199408  60.2759408  55.6490000  72.5939408  59.3049408  55.2060000
  65.6269408  55.5319408  52.0670000  66.1349408  55.9269408  51.3580000
  65.2669408  54.7309408  51.6870000  68.4599408  32.5539408  54.9290000
  68.0919408  31.8119408  55.4080000  68.4689408  33.2689408  55.5650000
  63.5699408  50.9729408  57.9310000  62.6959408  50.8599408  57.5580000
  64.1639408  50.6609408  57.2500000  84.5209408  47.0009408  52.3890000
  85.1209408  46.3069408  52.6620000  83.6929408  46.7869408  52.8180000
  71.6979408  50.0789408  59.7730000  70.8099408  49.8989408  59.4640000
  72.0089408  49.2409408  60.1130000  70.6369408  51.0749408  45.7480000
  71.0509408  50.3259408  46.1760000  70.8889408  50.9959408  44.8280000
  67.8009408  47.6069408  56.9660000  67.9509408  48.0929408  57.7770000
  68.6709408  47.3129408  56.6970000  74.6939408  57.6009408  59.4540000
  73.7959408  57.3609408  59.6810000  74.6029408  58.1929408  58.7070000
  68.0119408  55.6129408  59.1090000  67.3469408  55.9979408  59.6800000
  67.5689408  55.4959408  58.2690000  77.2359408  55.8399408  54.2300000
  77.9919408  55.7569408  53.6490000  76.6439408  55.1399408  53.9550000
  59.8979408  55.6919408  52.9550000  59.7849408  54.8959408  53.4740000
  60.8379408  55.7319408  52.7780000  68.7329408  55.2859408  32.7840000
  69.4529408  55.3559408  32.1580000  68.2929408  56.1349408  32.7390000
  86.7709408  33.6649408  52.7270000  86.7729408  32.8369408  53.2070000
  87.3549408  34.2339408  53.2270000  65.4859408  47.0279408  55.4590000
  65.3769408  46.1209408  55.7470000  66.3439408  47.2849408  55.7970000
  69.9189408  33.5539408  51.8240000  69.1149408  33.4609408  52.3350000
  70.5089408  32.8899408  52.1800000  71.3379408  58.9519408  57.8980000
  70.3879408  58.9459408  57.7800000  71.6909408  58.7969408  57.0220000
  68.4839408  42.6569408  42.7750000  68.7579408  43.2109408  42.0450000
  69.2489408  42.1129408  42.9640000  64.8689408  52.0059408  34.4930000
  65.4839408  52.3369408  33.8380000  65.3879408  51.9349408  35.2950000
  61.1839408  53.8679408  32.2820000  61.7039408  53.3719408  31.6500000
  61.6219408  53.7219408  33.1200000  61.2759408  50.9209408  52.3260000
  61.5259408  50.2529408  51.6880000  61.9619408  51.5849408  52.2600000
  67.4129408  56.2019408  50.0570000  67.4249408  56.6489408  49.2110000
  68.2419408  56.4469408  50.4690000  70.8449408  32.1909408  58.1290000
  69.9649408  31.9919408  57.8090000  70.7209408  32.4099408  59.0520000
  72.1609408  51.0939408  57.1720000  71.3539408  51.5889408  57.0280000
  72.4389408  51.3399408  58.0540000  61.9099408  56.0429408  56.4380000
  61.0299408  56.3809408  56.2760000  61.8099408  55.4669408  57.1960000
  86.5009408  53.4099408  33.8900000  87.2679408  53.2959408  33.3290000
  86.1529408  54.2679408  33.6490000  72.1069408  58.3369408  52.1520000
  72.8629408  58.3479408  52.7390000  71.9139408  59.2609408  51.9920000
  66.9049408  59.6589408  54.4020000  67.4049408  59.1249408  55.0190000
  67.5369408  59.8999408  53.7250000  75.8789408  32.1039408  51.6990000
  75.5149408  31.9559408  52.5720000  76.7829408  31.7959408  51.7610000
  68.8949408  51.6709408  49.8570000  68.2309408  51.5909408  49.1720000
  68.9859408  50.7849408  50.2080000  79.3409408  49.3989408  50.3370000
  79.0289408  49.1119408  49.4790000  78.5439408  49.5879408  50.8320000
  74.5349408  33.3569408  58.7370000  74.1719408  32.4879408  58.5610000
  75.0539408  33.5609408  57.9590000  77.1019408  45.7249408  55.9070000
  77.7749408  46.4049408  55.8650000  76.2939408  46.1989408  56.1020000
  73.0649408  31.5539408  50.0000000  73.9649408  31.6039408  50.3230000
  72.9399408  30.6309408  49.7800000  68.2529408  31.2669408  58.1430000
  67.5959408  31.4079408  58.8250000  68.1889408  30.3329408  57.9390000
  70.1359408  52.0139408  53.1660000  70.2959408  52.4989408  52.3560000
  70.9959408  51.9489408  53.5810000  78.4869408  38.0279408  31.6070000
  79.1999408  38.3819408  32.1380000  78.0509408  38.7999408  31.2450000
  75.1319408  47.2609408  56.3960000  75.2409408  47.6919408  57.2440000
  74.5449408  46.5269408  56.5740000  67.2789408  56.4109408  56.2950000
  66.3539408  56.2849408  56.0820000  67.7199408  56.4259408  55.4460000
  74.4529408  50.9099408  33.7780000  74.3679408  50.7669408  32.8350000
  75.0229408  50.2019408  34.0770000  67.1399408  57.5469408  47.6840000
  66.8289408  57.2759408  46.8200000  66.5409408  58.2459408  47.9460000
  85.0939408  33.0129408  55.4040000  84.7599408  32.6939408  54.5660000
  85.6369408  32.2969408  55.7340000  75.7979408  58.7229408  33.2530000
  75.6619408  57.7969408  33.0530000  75.1299408  59.1799408  32.7420000
  69.0859408  31.1759408  31.1750000  68.4019408  30.5059408  31.1510000
  68.6729408  31.9539408  30.8020000  68.0329408  59.1679408  40.5370000
  68.6119408  58.8459408  41.2270000  67.5109408  59.8489408  40.9610000
  72.8329408  46.8609408  43.8650000  72.4649408  45.9809408  43.9370000
  72.1939408  47.3459408  43.3420000  68.4229408  58.5869408  57.7970000
  68.0969408  58.0029408  57.1120000  68.0209408  58.2599408  58.6020000
  73.1219408  45.2349408  56.3590000  72.9999408  44.2859408  56.3360000
  73.2029408  45.4879408  55.4390000  65.5019408  30.1759408  50.8970000
  65.1519408  30.8029408  51.5300000  65.3639408  29.3209408  51.3060000
  74.6709408  37.7959408  35.3550000  75.3629408  37.6749408  34.7050000
  74.3999408  36.9069408  35.5840000  72.2429408  36.3459408  37.8770000
  73.0639408  35.9189408  37.6340000  71.5769408  35.9019408  37.3520000
  70.7739408  36.2109408  59.9660000  71.1209408  36.8889408  60.5450000
  70.1539408  36.6719408  59.4000000  84.9609408  45.1169408  36.4150000
  84.0719408  45.3439408  36.1410000  85.4919408  45.8699408  36.1570000
  79.3769408  37.5459408  42.7920000  79.5639408  37.9789408  41.9590000
  78.9799408  38.2279408  43.3340000  89.9389408  42.9329408  50.1570000
  89.2409408  43.5489408  49.9330000  89.5489408  42.0699408  50.0180000
  83.4369408  38.0999408  44.6000000  83.0629408  38.4679408  43.7990000
  83.0709408  37.2169408  44.6520000  87.4789408  33.9939408  40.6530000
  87.3369408  34.2939408  39.7560000  87.7139408  33.0699408  40.5640000
  83.8419408  37.9109408  41.1330000  83.2649408  38.4849408  40.6300000
  84.5029408  37.6239408  40.5030000  84.1399408  31.3499408  40.9420000
  83.2239408  31.4689408  41.1920000  84.1099408  30.7419408  40.2040000
  82.8249408  51.8459408  59.9020000  83.1099408  51.1609408  60.5080000
  83.3979408  51.7459408  59.1420000  60.0609408  36.7279408  47.5830000
  60.7789408  37.3319408  47.7720000  59.7179408  37.0209408  46.7390000
  79.3879408  42.0239408  31.7080000  78.4449408  42.1189408  31.5730000
  79.5609408  41.0969408  31.5410000  78.6229408  34.8899408  42.5080000
  79.1929408  34.4829408  41.8550000  78.9969408  35.7609408  42.6440000
  88.2209408  53.3229408  44.8680000  87.5639408  53.4529408  44.1850000
  89.0359408  53.1649408  44.3900000  87.7609408  32.7849408  33.9490000
  88.2159408  32.0179408  33.6010000  87.0409408  32.9349408  33.3370000
  75.8699408  37.0169408  30.6600000  75.2029408  36.8519408  31.3270000
  76.4569408  37.6569408  31.0610000  79.5339408  47.2399408  56.6460000
  80.2919408  46.8729408  56.1910000  79.5379408  46.8119408  57.5020000
  85.9399408  35.4359408  44.7680000  86.1589408  35.8389408  43.9280000
  85.7629408  34.5199408  44.5560000  85.4509408  36.9699408  35.4990000
  84.8859408  36.2069408  35.3780000  85.7639408  37.1789408  34.6180000
  60.4629408  52.8909408  43.2580000  60.2129408  51.9829408  43.0880000
  61.3599408  52.8359408  43.5870000  74.7979408  41.2589408  50.4950000
  74.1209408  41.7319408  50.0110000  75.3779408  41.9449408  50.8280000
  78.4659408  53.8039408  39.1880000  78.8379408  54.6159408  38.8460000
  78.9149408  53.1109408  38.7040000  76.7079408  37.0059408  33.8860000
  77.1969408  37.5149408  33.2390000  76.7849408  36.0999408  33.5860000
  65.6159408  33.9159408  47.9620000  66.1299408  33.4149408  48.5940000
  65.1099408  33.2559408  47.4870000  85.2969408  35.6169408  49.7390000
  86.1719408  35.2819408  49.5430000  84.9219408  35.8239408  48.8830000
  70.5079408  37.1349408  50.9140000  71.3479408  36.7929408  50.6060000
  70.6289408  37.2549408  51.8560000  65.4309408  38.9249408  43.3460000
  64.5449408  38.8439408  43.6980000  65.4069408  39.7229408  42.8170000
  89.5329408  30.6999408  33.3760000  90.1959408  30.7629408  32.6890000
  89.1429408  29.8339408  33.2540000  79.1209408  41.3209408  43.8360000
  78.7309408  41.3989408  42.9650000  78.7629408  42.0599408  44.3270000
  83.4509408  46.6139408  47.9200000  83.0099408  47.2459408  47.3520000
  82.8429408  46.4799408  48.6470000  61.2429408  55.3819408  41.0890000
  61.8839408  54.7989408  40.6820000  60.4409408  54.8619408  41.1370000
  60.5589408  33.4369408  32.1060000  60.9039408  33.9419408  31.3700000
  59.6199408  33.3699408  31.9320000  85.4529408  53.0009408  36.3470000
  86.1639408  52.5919408  36.8410000  85.8259408  53.1649408  35.4810000
  79.8289408  42.1619408  34.8400000  80.2879408  42.3219408  35.6640000
  79.5549408  43.0299408  34.5450000  78.0169408  37.0069408  57.2190000
  77.3259408  36.5609408  57.7080000  78.0999408  36.5049408  56.4080000
  85.5609408  41.1319408  45.4750000  85.1189408  40.5969408  46.1340000
  84.8589408  41.6419408  45.0700000  61.6959408  44.5629408  35.6540000
  61.0739408  44.5129408  34.9270000  61.7619408  43.6639408  35.9750000
  86.7429408  33.6139408  47.8620000  86.4659408  34.0829408  47.0750000
  86.0469408  32.9769408  48.0200000  81.6259408  49.4869408  31.2030000
  82.4039408  49.0829408  31.5860000  81.3859408  50.1789408  31.8190000
  79.8959408  37.7829408  59.2340000  79.4559408  37.5179408  58.4260000
  79.2739408  37.5689408  59.9280000  89.2179408  53.7659408  35.8380000
  89.3659408  54.3189408  35.0710000  89.4309408  52.8809408  35.5410000
  81.2669408  30.7559408  38.5830000  81.3999408  31.0999408  39.4660000
  80.5919408  30.0849408  38.6870000  84.1839408  34.4299408  59.2750000
  83.9199408  35.0219408  58.5710000  83.4349408  34.4179408  59.8720000
  87.0209408  30.6149408  53.3560000  86.1119408  30.3729408  53.1770000
  87.4589408  29.7839408  53.5400000  87.0549408  50.3509408  43.5330000
  86.2059408  50.0659408  43.1960000  87.4329408  49.5649408  43.9270000
  83.3629408  35.0449408  41.8150000  83.7649408  35.8809408  41.5770000
  84.1039408  34.4649408  41.9930000  84.9759408  31.0289408  50.1130000
  84.6729408  31.3969408  49.2830000  84.4759408  31.4979408  50.7810000
  82.5319408  53.9129408  46.2690000  83.3199408  53.8259408  46.8050000
  82.8589408  54.0669408  45.3830000  86.3219408  37.4929408  53.9420000
  86.3019408  36.7529408  54.5480000  87.1049408  37.9849408  54.1900000
  60.1739408  41.8329408  41.6060000  60.4409408  41.6049408  42.4960000
  60.8999408  42.3529408  41.2630000  85.7369408  49.1459408  38.1800000
  84.8499408  49.1279408  38.5390000  86.1869408  48.4239408  38.6170000
  76.6539408  39.5689408  37.1000000  76.2859408  39.1019408  36.3490000
  77.5579408  39.2609408  37.1550000  78.3429408  55.7469408  36.0430000
  78.8659408  54.9999408  35.7510000  77.5969408  55.7659408  35.4440000
  64.7929408  55.8129408  35.2480000  64.3529408  56.6369408  35.4600000
  64.0799408  55.1949408  35.0880000  83.2419408  53.1659408  40.4920000
  82.9709408  53.7249408  39.7630000  82.5509408  52.5069408  40.5570000
  85.7379408  56.5139408  46.0000000  85.5399408  55.6189408  45.7260000
  84.8859408  56.8929408  46.2160000  60.0309408  36.3349408  37.2890000
  59.4529408  35.8939408  36.6650000  60.7089408  36.7369408  36.7450000
  65.4109408  31.6389408  44.1010000  66.3529408  31.5459408  43.9540000
  65.1199408  32.2449408  43.4200000  80.9789408  41.3509408  58.1040000
  81.4849408  40.7389408  58.6380000  81.4719408  41.4199408  57.2860000
  72.0409408  33.7889408  30.3090000  71.4489408  34.5119408  30.1020000
  72.7159408  33.8299408  29.6310000  84.4599408  32.0869408  47.5660000
  84.6979408  32.1839408  46.6440000  83.9199408  31.2969408  47.5930000
  68.5499408  34.3989408  49.4280000  69.1569408  34.0959408  50.1040000
  67.8149408  33.7869408  49.4750000  87.6739408  37.2299408  58.4930000
  88.1929408  38.0039408  58.2730000  87.5139408  36.7999408  57.6530000
  81.2339408  31.7299408  41.0500000  81.0569408  31.7479408  41.9900000
  81.0979408  32.6329408  40.7630000  82.1169408  36.2239408  46.4610000
  81.5759408  36.8179408  46.9810000  81.6809408  36.1839408  45.6100000
  77.0459408  39.7769408  60.0950000  76.9329408  40.7139408  60.2500000
  77.3599408  39.7189408  59.1920000  87.9949408  31.5439408  39.2960000
  87.6689408  30.7739408  39.7610000  87.5859408  31.4939408  38.4320000
  64.1849408  49.2609408  45.5620000  63.2749408  49.4589408  45.3410000
  64.2369408  49.3929408  46.5080000  81.5719408  46.0879408  49.4610000
  81.2589408  46.5549408  50.2350000  82.0279408  45.3219408  49.8100000
  84.5889408  42.8039408  48.0590000  85.3309408  42.2919408  47.7360000
  84.9889408  43.5189408  48.5550000  62.6959408  34.0899408  51.8710000
  62.3059408  33.5869408  51.1560000  62.9999408  34.8979408  51.4560000
  89.8669408  52.4849408  53.7190000  90.5199408  52.0109408  53.2050000
  89.1229408  52.5889408  53.1250000  82.9719408  59.7709408  36.6800000
  82.3179408  60.1079408  37.2920000  83.6439408  59.3789408  37.2390000
  90.0319408  39.3559408  37.3470000  89.0959408  39.2539408  37.5190000
  90.1719408  38.9109408  36.5120000  72.1399408  37.4559408  42.2220000
  73.0799408  37.4309408  42.0430000  71.9669408  36.6499408  42.7080000
  82.2569408  42.3619408  41.4830000  81.7519408  43.1539408  41.2990000
  82.2079408  41.8529408  40.6740000  87.9939408  38.9349408  48.7130000
  88.8849408  38.7869408  49.0320000  87.4419408  38.4079408  49.2910000
  85.9349408  51.0989408  58.9360000  85.4299408  51.0179408  58.1280000
  86.4369408  51.9069408  58.8260000  62.6369408  38.9269408  38.6340000
  63.0599408  39.1289408  39.4690000  61.7709408  39.3279408  38.7010000
  61.9669408  38.2519408  48.4270000  62.8179408  38.6559408  48.5950000
  61.4089408  38.5619408  49.1400000  87.5039408  35.9579408  42.6760000
  87.6349408  35.1329408  42.2080000  87.4329408  36.6169408  41.9850000
  66.0659408  33.5049408  33.3350000  65.7129408  34.3689408  33.5490000
  65.3759408  33.0859408  32.8200000  80.1629408  33.2489408  37.1740000
  80.7889408  32.6829408  37.6270000  79.4289408  33.3299408  37.7820000
  65.8869408  40.2809408  35.3640000  65.6359408  40.8369408  36.1020000
  65.8729408  40.8659408  34.6070000  86.0049408  58.4509408  50.5770000
  85.3879408  57.8689408  50.1320000  85.6789408  59.3319408  50.3920000
  75.9519408  45.9449408  30.6750000  75.0699408  45.6069408  30.8280000
  76.3909408  45.2529408  30.1800000  82.1649408  37.7679408  38.6350000
  83.0789408  37.4839408  38.6030000  82.1279408  38.5239408  38.0490000
  84.3869408  40.8979408  37.2380000  84.6949408  41.3449408  38.0260000
  85.0989408  41.0059408  36.6070000  87.1109408  37.9229408  40.7590000
  86.6699408  38.6599408  41.1820000  87.2859408  38.2279408  39.8680000
  84.4309408  38.2329408  30.1660000  84.9999408  38.8329408  29.6840000
  84.9499408  37.9689408  30.9260000  87.6649408  47.8339408  50.4340000
  87.0099408  47.9209408  51.1270000  87.7929408  48.7259408  50.1110000
  80.4459408  35.7249408  35.9510000  80.6899408  34.9389408  36.4390000
  81.2809408  36.0999408  35.6680000  64.0989408  47.2339408  50.9040000
  63.5579408  47.6299408  50.2210000  64.7849408  47.8809408  51.0720000
  83.0409408  55.6989408  37.7480000  82.2169408  56.1149408  37.4950000
  83.0589408  54.8799408  37.2530000  75.0709408  33.1099408  41.9730000
  75.9309408  32.7019408  41.8700000  74.5769408  32.4959408  42.5170000
  61.2549408  36.8109408  44.1630000  60.3669408  36.7379408  44.5100000
  61.5479408  37.6809408  44.4330000  61.2039408  48.3319408  38.1590000
  61.7869408  48.4599408  38.9080000  60.4139408  47.9419408  38.5330000
  70.8509408  48.0429408  50.5640000  71.5169408  47.8769408  49.8970000
  70.6929408  47.1879408  50.9640000  85.3289408  43.5029408  41.5810000
  85.0329408  44.2309408  42.1270000  86.1189408  43.1829408  42.0170000
  87.1119408  57.8559408  44.3000000  86.6299408  57.3489408  44.9530000
  88.0099408  57.8809408  44.6300000  84.7879408  32.1149408  35.8990000
  84.1839408  31.3719408  35.9120000  85.6579408  31.7159408  35.9040000
  79.4179408  45.1679408  46.0930000  80.2329408  44.6729408  46.0060000
  79.6999408  46.0539408  46.3210000  87.7659408  43.5989408  33.8470000
  87.7389408  43.8419408  34.7720000  87.9009408  44.4269408  33.3850000
  65.1689408  44.5189408  46.3780000  65.8409408  44.4369408  47.0540000
  64.4199408  44.9079408  46.8290000  82.8469408  44.3839408  59.2860000
  83.0729408  45.2939408  59.4810000  82.3399408  44.4319408  58.4760000
  84.5049408  33.7859408  38.3370000  84.6659408  33.1259408  37.6630000
  85.3689408  33.9629408  38.7110000  87.8919408  45.9599408  31.8140000
  87.0629408  45.4949408  31.6950000  88.2699408  46.0039408  30.9360000
  81.4209408  35.9589408  43.7260000  80.7449408  36.4539408  43.2630000
  82.0389408  35.6999408  43.0420000  64.4059408  40.8699408  31.0480000
  63.6999408  41.4429408  31.3470000  65.1239408  41.0339408  31.6600000
  77.9489408  47.1749408  41.2960000  77.9059408  46.2389408  41.0990000
  78.8179408  47.2979408  41.6800000  85.4809408  41.9639408  39.4060000
  85.1199408  42.5119408  40.1030000  86.2799408  41.5939408  39.7810000
  87.2379408  34.9699408  38.0610000  87.3909408  35.8909408  38.2740000
  87.5609408  34.8749408  37.1650000  84.1389408  38.9709408  54.3760000
  83.4629408  38.4299408  53.9690000  84.9209408  38.4189408  54.3760000
  76.7859408  48.4209408  31.6810000  76.7219408  47.5299408  31.3370000
  77.4129408  48.8559408  31.1040000  82.8489408  43.5719408  49.9600000
  83.5609408  43.2709408  49.3950000  82.1069408  43.0129408  49.7290000
  83.2589408  30.4689408  44.2250000  83.7039408  29.7619408  43.7580000
  83.9489408  31.1049408  44.4120000  68.5139408  48.9249408  34.6940000
  68.4449408  47.9949408  34.9100000  67.8739408  49.0569408  33.9950000
  60.9149408  42.1979408  33.5130000  60.7669408  42.8599408  32.8380000
  60.2449408  41.5339408  33.3490000  76.2619408  35.6629408  41.8050000
  77.1559408  35.3529408  41.9450000  75.7269408  34.8699408  41.8260000
  85.2609408  32.5219408  45.1500000  86.1599408  32.1979408  45.2140000
  85.1129408  32.6349408  44.2110000  86.0369408  39.7699408  42.4210000
  86.3529408  39.1019408  43.0300000  85.0999408  39.8379408  42.6050000
  83.0209408  38.4339408  33.5050000  83.2149408  39.3699408  33.4500000
  83.4379408  38.1499408  34.3190000  78.3969408  31.7669408  34.5070000
  78.1719408  31.0319408  35.0770000  79.3529408  31.8069408  34.5340000
  87.9889408  39.2129408  55.4190000  88.5799408  39.2639408  56.1700000
  87.4759408  40.0199408  55.4620000  89.4079408  50.4649408  42.4830000
  88.5159408  50.4729408  42.8300000  89.2959408  50.4509408  41.5330000
  79.9099408  38.3669408  40.0660000  79.9099408  39.2509408  39.6990000
  80.6139408  37.9149408  39.6030000  82.6919408  41.3699408  56.1520000
  82.7639408  40.5559408  55.6530000  83.5839408  41.5479408  56.4510000
  82.3429408  47.8229408  43.7280000  82.4789408  48.5569408  44.3260000
  81.4959408  47.9999408  43.3180000  78.5539408  48.9259408  54.6820000
  78.7939408  48.2999408  55.3660000  79.3529408  49.4279408  54.5250000
  60.9789408  41.7839408  36.4660000  60.8059408  41.5689408  35.5490000
  60.8379408  40.9619408  36.9360000  78.5449408  36.2349408  38.9460000
  78.6869408  36.3049408  38.0020000  78.8589408  37.0669408  39.2990000
  77.5829408  32.1169408  41.6990000  77.5359408  31.9249408  42.6360000
  77.4419408  31.2719408  41.2740000  83.0879408  36.0449408  32.2860000
  83.1179408  36.9629408  32.5550000  82.5769408  36.0479408  31.4770000
  79.4299408  59.0179408  30.8690000  80.3869408  59.0099408  30.8630000
  79.1899408  58.4979408  31.6360000  83.0929408  34.5809408  56.6170000
  83.7929408  34.1529408  56.1250000  82.4559408  34.8409408  55.9520000
  89.4029408  51.3029408  46.8030000  89.1189408  52.1149408  46.3830000
  90.2919408  51.4879408  47.1050000  89.9999408  33.3119408  38.7350000
  89.2879408  32.6869408  38.8720000  89.6239408  34.1599408  38.9690000
  67.9229408  30.9289408  37.0610000  68.3859408  31.4039408  37.7510000
  67.6119408  31.6119408  36.4670000  86.0629408  36.2019408  32.8730000
  86.7759408  36.4759408  32.2960000  85.4759408  35.7009408  32.3070000
  85.4119408  50.8149408  31.5320000  85.4999408  50.9999408  30.5970000
  86.2239408  50.3649408  31.7650000  88.3659408  35.4669408  49.3010000
  88.8039408  35.9929408  48.6320000  88.0599408  34.6899408  48.8330000
  73.7059408  30.8079408  58.7940000  72.8089408  30.6749408  59.0990000
  74.2449408  30.6919408  59.5770000  80.9419408  34.3839408  47.7550000
  80.5819408  33.9059408  47.0080000  81.5239408  35.0359408  47.3640000
  79.5519408  43.4549408  59.3200000  79.6209408  42.9329408  60.1200000
  79.9389408  42.9039408  58.6400000  89.4049408  39.7769408  31.2160000
  89.7829408  39.6169408  30.3520000  88.8879408  38.9919408  31.4010000
  83.8139408  46.7889408  59.7140000  83.7769408  47.3819408  60.4640000
  84.6549408  46.9789408  59.2980000  62.6029408  46.3849408  57.6050000
  62.3689408  46.0419408  56.7430000  63.5349408  46.1849408  57.6980000
  81.4199408  43.2069408  54.2540000  81.6209408  42.3409408  54.6100000
  81.2789408  43.0559408  53.3200000  84.3839408  46.4509408  56.5200000
  84.4989408  47.3369408  56.1780000  84.0379408  46.5779408  57.4040000
  89.1759408  40.3779408  52.4850000  88.2839408  40.5879408  52.2080000
  89.0939408  40.1619408  53.4140000  87.5159408  41.6489408  48.8270000
  87.5849408  40.6959408  48.7670000  87.6049408  41.8379408  49.7610000
  88.1189408  43.0759408  53.9840000  88.7619408  42.6759408  54.5710000
  87.4529408  43.4369408  54.5690000  60.9759408  43.9229408  56.7960000
  61.2779408  44.0099408  57.7000000  61.7439408  43.6149408  56.3150000
  84.1129408  31.7349408  58.1150000  84.7809408  31.4299408  57.5010000
  84.4059408  32.6089408  58.3730000  81.7639408  43.3609408  32.3840000
  81.7739408  43.7069408  31.4920000  80.9559408  42.8499408  32.4340000
  60.6829408  34.4809408  56.5800000  60.8219408  34.3349408  55.6450000
  60.8769408  35.4089408  56.7100000  88.0309408  55.7699408  30.2010000
  87.6519408  56.3839408  29.5710000  88.7909408  56.2309408  30.5560000
  62.9169408  40.2559408  52.9200000  62.3259408  40.8239408  52.4250000
  63.4999408  40.8599408  53.3800000  81.1939408  34.9999408  54.4080000
  80.3499408  35.2639408  54.7730000  81.2559408  34.0639408  54.5980000
  86.5439408  35.5789408  55.9390000  85.8209408  34.9659408  55.8060000
  87.3229408  35.0939408  55.6660000  88.7599408  58.1839408  33.0480000
  88.8759408  57.2849408  33.3560000  89.4779408  58.3219408  32.4310000
  62.6489408  37.0719408  53.3300000  62.9159408  37.8839408  52.8980000
  62.1039408  36.6239408  52.6820000  82.4329408  54.4709408  30.8190000
  81.6569408  54.3989408  31.3750000  82.5059408  53.6149408  30.3970000
  87.0089408  37.7539408  50.9100000  87.1639408  37.5669408  51.8360000
  86.1749408  37.3249408  50.7160000  63.2349408  48.6979408  54.7910000
  62.6099408  47.9739408  54.8150000  64.0829408  48.2909408  54.9680000
  65.1829408  45.2449408  58.7310000  65.2499408  44.6459408  57.9880000
  66.0909408  45.4169408  58.9820000  79.5569408  49.2589408  34.7920000
  79.8279408  48.5009408  34.2750000  79.5719408  49.9889408  34.1730000
  86.9399408  40.5709408  35.5480000  87.2969408  41.4359408  35.7460000
  87.5429408  40.2049408  34.9000000  82.1869408  37.3489408  53.2340000
  82.6329408  37.2299408  52.3960000  81.9849408  36.4599408  53.5270000
  83.0549408  56.8219408  45.9560000  82.1179408  56.8199408  46.1500000
  83.1779408  56.0819408  45.3610000  86.0829408  44.9759408  52.9120000
  86.8299408  44.5689408  52.4730000  86.1679408  44.7089408  53.8270000
  61.7139408  34.7479408  34.2270000  61.3929408  34.3309408  33.4270000
  61.0859408  34.4889408  34.9010000  86.7119408  58.8939408  31.2240000
  87.5319408  58.5429408  31.5710000  86.3319408  59.3829408  31.9540000
  84.2559408  53.5429408  48.3680000  84.2759408  52.7569408  48.9150000
  85.1489408  53.6239408  48.0320000  87.4089408  58.0439408  58.3580000
  86.8659408  58.5749408  58.9420000  88.0689408  58.6529408  58.0260000
  66.1619408  51.5309408  55.3790000  66.6229408  52.3089408  55.0660000
  66.8009408  50.8229408  55.2930000  84.1759408  48.5089408  31.7660000
  84.5339408  49.3739408  31.5650000  84.8279408  48.1069408  32.3410000
  85.2449408  45.1359408  49.2390000  84.6809408  45.3399408  49.9860000
  85.0279408  45.8009408  48.5860000  87.8889408  32.9389408  30.7890000
  87.1389408  32.3659408  30.9500000  87.5709408  33.8159408  31.0000000
  77.5889408  35.9449408  51.8650000  77.9269408  35.0509408  51.9150000
  78.2399408  36.4199408  51.3480000  78.6329408  33.7929408  57.6990000
  79.4459408  33.2949408  57.6140000  78.5859408  34.0199408  58.6280000
  89.2179408  41.7099408  56.2810000  89.3859408  41.1539408  57.0420000
  89.5759408  42.5639408  56.5240000  80.0679408  36.6019408  50.6770000
  80.4109408  35.7399408  50.4420000  80.8469408  37.1369408  50.8290000
  89.4139408  33.1659408  46.0720000  89.2369408  32.3849408  46.5970000
  88.9069408  33.8589408  46.4960000  86.1419408  42.3979408  57.6270000
  85.4329408  42.2329408  58.2480000  86.9029408  42.5879408  58.1750000
  77.8799408  37.6249408  54.1220000  77.7579408  36.6759408  54.0920000
  77.0159408  37.9709408  54.3480000  81.5639408  45.6829408  55.4200000
  82.2419408  45.5029408  56.0710000  81.3869408  44.8329408  55.0160000
  89.8499408  32.5939408  58.7080000  89.3119408  32.9239408  59.4270000
  89.7199408  33.2259408  58.0010000  84.0009408  34.7069408  35.0710000
  83.8849408  34.5229408  34.1390000  84.2479408  33.8649408  35.4530000
  88.6979408  34.9809408  53.9730000  89.2289408  35.6649408  54.3820000
  89.2709408  34.2149408  53.9480000  62.5169408  33.7909408  58.9940000
  62.3399408  34.7299408  59.0370000  62.0049408  33.4829408  58.2460000
  69.8899408  41.8059408  47.1790000  70.2009408  41.2239408  47.8720000
  70.1229408  41.3559408  46.3660000  62.2539408  45.9619408  54.7120000
  61.4929408  45.4689408  54.4070000  63.0069408  45.4519408  54.4130000
  80.1359408  46.2199408  58.9780000  79.9219408  45.3049408  58.7990000
  80.5769408  46.2019408  59.8280000  80.0029408  39.2039408  53.4090000
  80.8009408  38.6759408  53.4560000  79.3039408  38.6049408  53.6730000
  83.6059408  42.7209408  44.1930000  83.3069408  42.6279408  43.2890000
  83.8659408  43.6389408  44.2670000  81.9269408  48.4589408  57.4240000
  81.6859408  49.2179408  57.9550000  81.2059408  47.8409408  57.5460000
  80.6599408  50.6539408  58.5530000  80.8069408  50.9329408  59.4560000
  80.5649408  51.4699408  58.0610000  83.0969408  37.0939408  50.7320000
  83.5719408  37.7899408  50.2780000  83.5829408  36.2959408  50.5220000
  60.1209408  37.1739408  55.0360000  61.0009408  37.3079408  54.6820000
  59.6779408  38.0119408  54.9010000  81.2829408  34.2129408  40.2370000
  82.1709408  34.4309408  40.5200000  80.9569408  35.0169408  39.8310000
  65.2779408  41.5559408  37.5480000  64.8449408  40.9229408  38.1220000
  65.5749408  42.2489408  38.1370000  66.0519408  36.0389408  42.9900000
  66.7619408  35.9259408  42.3580000  65.9799408  36.9859408  43.1040000
  85.8779408  44.2189408  55.3820000  85.9199408  43.5969408  56.1090000
  85.3539408  44.9449408  55.7190000  86.9689408  56.1229408  52.1750000
  87.8909408  56.2139408  52.4190000  86.8059408  56.8519408  51.5770000
  60.5089408  39.7659408  43.8980000  59.8269408  39.7809408  44.5700000
  60.2249408  39.0889408  43.2830000  82.0069408  43.9469408  46.1180000
  82.6479408  43.3789408  45.6900000  82.4899408  44.3509408  46.8390000
  81.3509408  53.5839408  57.1550000  82.0519408  54.1379408  56.8110000
  80.8199408  54.1729408  57.6900000  63.1369408  45.9089408  47.4420000
  63.2879408  46.7359408  47.8990000  62.3239408  46.0479408  46.9560000
  84.1139408  33.7159408  51.1230000  84.5879408  34.4759408  50.7840000
  84.5419408  33.5189408  51.9560000  59.8739408  39.2279408  57.4500000
  60.4399408  39.4969408  56.7260000  60.4529408  38.7489408  58.0430000
  73.7419408  36.4529408  45.6390000  74.2449408  36.8479408  44.9270000
  73.4279408  37.1979408  46.1520000  88.1879408  42.5169408  59.3490000
  89.0379408  42.9559408  59.3450000  88.2049408  41.9679408  60.1330000
  63.9139408  44.3159408  50.0960000  63.3239408  45.0459408  50.2810000
  63.8699408  44.2069408  49.1460000  79.3529408  39.0949408  49.9650000
  78.9699408  39.8979408  50.3180000  79.1119408  38.4159408  50.5960000
  77.2159408  32.2419408  44.2630000  77.4569408  31.6839408  45.0030000
  76.9959408  33.0849408  44.6600000  65.4609408  44.3169408  56.1370000
  64.8509408  43.6819408  55.7600000  66.2679408  43.8219408  56.2740000
  66.1759408  33.6459408  53.8610000  67.0319408  33.4339408  54.2340000
  65.6269408  33.8449408  54.6190000  60.6509408  44.1239408  53.5250000
  59.7119408  43.9479408  53.5810000  60.9809408  43.4709408  52.9080000
  62.0539408  42.5049408  51.6720000  62.7779408  43.0489408  51.3630000
  61.3189408  42.7389408  51.1060000  87.4739408  38.2959408  37.3770000
  87.0789408  39.0559408  36.9490000  87.4529408  37.6089408  36.7110000
  64.6389408  38.2059408  30.3610000  64.5499408  39.1419408  30.5400000
  65.5799408  38.0399408  30.4160000  63.5789408  35.2939408  44.7230000
  64.2869408  35.7469408  44.2640000  62.8469408  35.9109408  44.7040000
  74.3679408  38.5949408  50.4910000  74.4269408  39.5469408  50.5680000
  74.3979408  38.4279408  49.5490000  62.4339408  59.4479408  51.3220000
  61.7669408  58.7629408  51.3040000  62.1439408  60.0829408  50.6670000
  79.6399408  47.0629408  51.6660000  80.2749408  47.2579408  52.3550000
  79.4069408  47.9179408  51.3040000  87.1349408  42.3819408  51.4320000
  86.3539408  41.8949408  51.6950000  87.7049408  42.3559408  52.2000000
  61.7099408  34.5589408  47.3620000  61.2679408  34.1129408  46.6390000
  61.0809408  35.2169408  47.6580000  63.7859408  33.1389408  35.5410000
  64.7399408  33.2159408  35.5740000  63.5029408  33.8839408  35.0110000
  82.3099408  40.3559408  51.7640000  81.7209408  41.1059408  51.6740000
  81.7629408  39.6659408  52.1410000  88.6129408  50.5529408  50.3810000
  89.2029408  50.8629408  51.0670000  88.5069408  51.3039408  49.7970000
  78.5159408  55.7009408  30.7170000  78.6129408  56.6029408  31.0230000
  79.1969408  55.5999408  30.0510000  84.3199408  45.3179408  43.4330000
  83.7379408  46.0469408  43.2200000  84.8819408  45.6559408  44.1310000
  82.5469408  45.5769408  34.2880000  81.8889408  46.0879408  33.8160000
  82.4899408  44.7009408  33.9070000  79.5539408  30.0589408  47.2370000
  79.8519408  30.3489408  46.3750000  78.6799408  30.4369408  47.3290000
  84.5779408  56.1839408  49.7680000  85.3119408  55.7339408  49.3490000
  83.8019408  55.8429408  49.3220000  81.9709408  59.7309408  34.2900000
  81.4919408  60.5529408  34.3860000  82.2929408  59.5359408  35.1700000
  79.7779408  53.9979408  43.5600000  80.2779408  54.1409408  42.7560000
  80.3799408  53.5269408  44.1360000  76.2369408  32.5929408  37.0360000
  76.4979408  31.7169408  36.7530000  77.0569408  33.0199408  37.2820000
  77.8549408  33.6489408  38.8230000  78.0219408  34.5789408  38.9790000
  77.6949408  33.2839408  39.6930000  80.3289408  54.1079408  32.8240000
  79.6049408  54.5969408  32.4350000  80.2499408  54.2699408  33.7640000
  81.6989408  30.0119408  49.4060000  82.3109408  29.7979408  48.7010000
  80.9559408  30.4209408  48.9620000  87.1489408  51.4149408  38.1260000
  87.0169408  51.9989408  38.8730000  86.3659408  50.8649408  38.1090000
  81.1139408  32.1109408  34.7390000  81.1109408  32.6599408  35.5240000
  81.5609408  32.6399408  34.0780000  82.0079408  40.1399408  46.2200000
  81.9829408  40.3189408  45.2790000  82.8879408  39.7949408  46.3750000
  76.6089408  48.0909408  43.3550000  76.7289408  47.5009408  42.6110000
  77.4469408  48.5439408  43.4390000  87.8639408  47.4319408  39.3610000
  87.7469408  47.2979408  40.3010000  88.3079408  48.2779408  39.2930000
  61.0329408  55.6039408  43.9710000  60.2089408  55.2399408  44.2930000
  61.2309408  55.0919408  43.1870000  61.9339408  59.6879408  48.6420000
  62.2469408  58.7839408  48.6550000  61.5109408  59.7829408  47.7880000
  61.1559408  48.4609408  50.0400000  60.2709408  48.7809408  49.8660000
  61.0349408  47.5459408  50.2950000  62.0799408  58.3339408  33.5080000
  61.6479408  58.7749408  32.7770000  62.4669408  59.0439408  34.0210000
  77.4589408  49.6149408  36.9330000  76.5709408  49.2699408  37.0270000
  77.7209408  49.3639408  36.0470000  85.5019408  55.3549408  58.7860000
  86.3499408  54.9159408  58.7100000  85.0439408  55.1329408  57.9750000
  86.6749408  47.5639408  43.5590000  86.2789408  47.7839408  44.4030000
  86.8119408  46.6169408  43.5990000  79.9319408  53.5469408  35.4520000
  79.4589408  52.7149408  35.4690000  80.8459408  53.3059408  35.6030000
  83.0439408  51.6259408  43.4910000  82.5689408  51.6099408  42.6600000
  83.9519408  51.4399408  43.2520000  81.5259408  57.0239408  33.9340000
  81.8329408  56.7029408  33.0860000  81.8009408  57.9409408  33.9570000
  82.5659408  53.1829408  36.2490000  82.5139408  52.3989408  36.7960000
  83.4839408  53.2299408  35.9820000  62.7359408  53.2419408  51.7040000
  62.8889408  53.6109408  50.8350000  62.5469408  53.9999408  52.2570000
  85.2289408  33.2469408  42.4100000  84.8559408  32.6399408  41.7710000
  86.0849408  33.4789408  42.0500000  63.0529408  56.7679408  45.5720000
  62.4119408  56.2939408  45.0430000  63.1159408  57.6289408  45.1590000
  84.1119408  51.8259408  33.7350000  84.7569408  52.4489408  34.0690000
  84.4369408  51.5849408  32.8680000  85.3229408  46.5199408  33.7300000
  85.4299408  45.8639408  33.0410000  84.4889408  46.2979408  34.1450000
  61.2079408  54.3789408  58.9760000  60.7519408  53.5889408  59.2650000
  62.1189408  54.1049408  58.8680000  85.6729408  50.8899408  53.2500000
  85.9379408  51.6929408  52.8020000  85.0279408  50.4909408  52.6670000
  88.0719408  45.0429408  44.1250000  88.3279408  44.1539408  43.8810000
  88.7059408  45.6059408  43.6790000  81.4969408  47.6769408  38.9910000
  80.6869408  47.9649408  39.4120000  81.2069408  47.1699408  38.2330000
  81.3089408  51.2979408  40.9070000  80.3719408  51.3809408  41.0840000
  81.3559408  50.9219408  40.0280000  79.9409408  55.9629408  58.3800000
  79.0549408  56.3189408  58.3170000  80.3819408  56.2749408  57.5900000
  82.7679408  49.3119408  47.3790000  82.3009408  50.0629408  47.0110000
  83.4259408  49.6989408  47.9570000  79.7129408  51.5399408  37.5910000
  79.1179408  50.8719408  37.2500000  80.5109408  51.0599408  37.8100000
  83.7039408  47.7479408  40.5130000  84.1529408  46.9339408  40.2860000
  82.9529408  47.7799408  39.9200000  87.4709408  55.8359408  36.5070000
  87.7579408  54.9329408  36.6370000  87.3959408  55.9299408  35.5570000
  87.1539408  55.2229408  48.8610000  87.2309408  54.5909408  48.1470000
  87.9429408  55.7599408  48.7930000  88.9979408  45.2499408  47.3840000
  88.6679408  45.0439408  48.2580000  88.5579408  44.6249408  46.8080000
  77.0249408  52.7099408  47.6690000  76.8809408  52.0149408  47.0260000
  76.7759408  53.5139408  47.2140000  85.5159408  32.1409408  32.2740000
  84.6969408  32.6339408  32.2290000  85.2789408  31.3189408  32.7030000
  87.8379408  46.4779408  34.9610000  87.1649408  46.4449408  34.2810000
  88.2269408  47.3489408  34.8720000  78.1619408  41.4479408  48.1310000
  78.1129408  41.6889408  49.0560000  79.0279408  41.7449408  47.8520000
  71.7949408  34.1809408  45.4660000  71.0579408  34.3869408  46.0420000
  72.4969408  34.7619408  45.7580000  84.6279408  59.7129408  33.2650000
  83.6809408  59.5999408  33.3410000  84.9819408  59.3039408  34.0550000
  84.1549408  58.4689408  38.6710000  84.9869408  57.9959408  38.6860000
  83.5239408  57.8559408  39.0480000  87.6299408  58.3429408  37.5860000
  87.5669408  57.3909408  37.5050000  87.5549408  58.5079408  38.5260000
  86.7179408  53.2369408  47.1170000  87.0469408  53.5299408  46.2670000
  86.4409408  52.3329408  46.9690000  88.6429408  53.4169408  32.1320000
  89.5469408  53.7219408  32.2000000  88.2299408  54.0239408  31.5180000
  60.8829408  45.8929408  50.9960000  61.0199408  45.6469408  51.9110000
  60.0429408  45.4959408  50.7640000  89.7119408  57.0349408  48.1520000
  89.5509408  57.4989408  47.3300000  89.2639408  57.5589408  48.8150000
  67.1339408  53.6299408  47.5170000  66.9599408  54.4419408  47.0430000
  67.4829408  53.0339408  46.8540000  64.8129408  50.6049408  50.3340000
  64.8989408  51.5329408  50.5520000  64.8869408  50.1529408  51.1740000
  85.3029408  56.0099408  41.7730000  85.0519408  55.5969408  40.9470000
  84.6769408  56.7259408  41.8830000  75.4609408  53.4619408  33.0360000
  75.9439408  53.2799408  32.2300000  75.3659408  52.6069408  33.4560000
  85.1669408  55.1589408  31.8110000  84.2559408  54.8679408  31.8270000
  85.3879408  55.2049408  30.8810000  81.1539408  57.1659408  36.5480000
  81.4189408  56.9389408  35.6570000  81.5359408  58.0299408  36.7000000
  77.0539408  56.8609408  58.2050000  76.3929408  57.1089408  58.8510000
  76.5519408  56.4939408  57.4770000  76.0469408  34.5639408  45.7710000
  76.0809408  34.5099408  46.7260000  75.4529408  35.2939408  45.5940000
  62.8799408  57.4629408  42.2670000  62.0239408  57.0379408  42.2150000
  63.2679408  57.3299408  41.4030000  88.6919408  49.2009408  33.8620000
  89.5599408  48.8229408  33.7170000  88.1619408  48.8679408  33.1380000
  87.3199408  48.8899408  31.5420000  87.8129408  49.1749408  30.7720000
  87.3469408  47.9339408  31.5040000  60.1709408  55.8719408  33.6420000
  60.6029408  55.3299408  32.9810000  60.8439408  56.4929408  33.9200000
  81.9069408  50.2649408  38.2860000  81.7919408  49.3209408  38.3890000
  82.4119408  50.3589408  37.4790000  80.8209408  55.7819408  41.5460000
  80.6039408  55.9449408  40.6280000  80.7959408  56.6459408  41.9560000
  87.3569408  31.1799408  36.2670000  87.6309408  31.6629408  35.4870000
  88.0139408  30.4909408  36.3660000  78.4929408  50.8929408  41.3400000
  78.2899408  50.2629408  40.6490000  77.8709408  51.6069408  41.2050000
  87.5929408  58.9229408  40.4380000  87.4519408  59.3709408  41.2720000
  88.5019408  58.6269408  40.4740000  60.6229408  55.0849408  49.8260000
  61.5509408  54.8679408  49.9130000  60.5909408  55.7159408  49.1080000
  72.2699408  46.4249408  58.7760000  72.9509408  47.0969408  58.8060000
  72.4539408  45.9319408  57.9760000  89.5049408  39.6089408  33.9390000
  89.2369408  39.4409408  33.0360000  90.3389408  39.1489408  34.0320000
  84.9399408  58.5519408  42.8940000  85.6679408  58.0659408  43.2810000
  85.3499408  59.3119408  42.4820000  86.2609408  50.5759408  46.5330000
  85.9599408  49.7359408  46.1870000  87.1519408  50.4039408  46.8380000
  60.9209408  59.9589408  39.9480000  61.4189408  59.3979408  39.3520000
  60.0779408  60.0829408  39.5120000  60.1289408  30.2789408  36.1440000
  60.1339408  30.2069408  35.1890000  60.6739408  29.5509408  36.4420000
  80.1059408  56.3139408  38.9570000  80.3829408  56.3689408  38.0430000
  79.8789408  57.2129408  39.1940000  77.8029408  31.4979408  32.0150000
  77.8179408  31.3079408  32.9530000  77.9959408  30.6579408  31.5970000
  81.2849408  51.4409408  33.2030000  82.1909408  51.6019408  33.4660000
  80.9289408  52.3109408  33.0260000  84.8339408  48.1349408  45.5300000
  85.1179408  47.2749408  45.8380000  84.2629408  48.4619408  46.2250000
  85.9399408  53.0769408  40.1740000  85.0409408  52.8989408  40.4490000
  85.8779408  53.8789408  39.6550000  67.8459408  34.6539408  58.8310000
  68.2209408  34.7389408  59.7070000  67.3629408  33.8279408  58.8550000
  60.5509408  53.0329408  38.3860000  60.1859408  53.4379408  37.6000000
  59.8569408  53.1109408  39.0410000  81.0919408  32.8469408  57.7180000
  81.6289408  32.2659408  58.2570000  81.7059408  33.5029408  57.3870000
  84.6889408  56.4959408  53.9890000  85.4609408  56.4079408  53.4300000
  84.0209408  55.9579408  53.5630000  86.0789408  58.6559408  35.3270000
  86.5179408  58.9459408  36.1270000  86.5309408  57.8469408  35.0860000
  81.9989408  57.5469408  31.0180000  82.9239408  57.6119408  30.7810000
  81.7279408  56.6889408  30.6910000  77.6129408  50.7449408  33.2240000
  77.4149408  49.8939408  32.8320000  77.7729408  51.3209408  32.4770000
  88.7029408  53.2359408  50.3090000  89.5569408  53.6369408  50.1500000
  88.0819408  53.8059408  49.8540000  79.1839408  52.3919408  49.3730000
  78.8759408  52.0519408  50.2130000  78.3959408  52.4469408  48.8330000
  88.9259408  49.3549408  59.1130000  88.4939408  49.0299408  58.3230000
  89.7449408  48.8629408  59.1590000  82.4529408  52.8319408  54.3870000
  83.2899408  53.2969408  54.4070000  81.9209408  53.3219408  53.7600000
  89.3329408  50.1069408  39.6110000  90.1389408  50.5079408  39.2850000
  88.7129408  50.1949408  38.8870000  89.7389408  31.2499408  52.7270000
  89.9719408  30.5979408  52.0660000  88.7969408  31.1349408  52.8560000
  74.6139408  54.3099408  58.8680000  73.7559408  54.7329408  58.8890000
  75.0889408  54.7639408  58.1720000  61.4839408  50.5129408  56.1210000
  61.9909408  49.8839408  55.6070000  60.8779408  50.9039408  55.4910000
  86.4009408  40.1289408  59.6700000  86.3809408  40.6799408  60.4520000
  86.2529408  40.7369408  58.9450000  89.0999408  56.4319408  55.9860000
  88.5239408  56.4859408  56.7480000  88.5919408  55.9469408  55.3350000
  87.4289408  54.6289408  54.5640000  86.6139408  54.5409408  54.0710000
  87.3679408  53.9629408  55.2490000  86.4519408  48.2429408  53.9800000
  86.5979408  49.0739408  53.5290000  85.5169408  48.0689408  53.8690000
  86.6279408  35.1689408  60.1560000  85.8039408  34.7719408  59.8740000
  86.6229408  36.0389408  59.7570000  62.8429408  55.7119408  53.1490000
  63.7689408  55.4969408  53.0340000  62.8479408  56.5679408  53.5780000
  83.8769408  51.7659408  57.1800000  84.5629408  52.2469408  56.7180000
  83.0929408  52.3049408  57.0720000  88.0669408  45.0089408  50.1910000
  88.0739408  45.9439408  49.9830000  87.1889408  44.8459408  50.5340000
  86.0639408  47.5379408  58.8710000  86.7539408  46.9079408  58.6660000
  86.4249408  48.3839408  58.6060000  89.9059408  58.0329408  51.8660000
  89.3759408  58.3819408  52.5830000  90.0419408  57.1129408  52.0930000
  87.5559408  53.3009408  58.4550000  88.1949408  53.8009408  58.9620000
  88.0589408  52.9369408  57.7270000  87.8099408  47.9179408  56.6380000
  87.3599408  48.3039408  55.8870000  87.8709408  46.9859408  56.4280000
  80.8229408  50.4389408  54.5460000  81.4419408  51.1659408  54.6110000
  80.8099408  50.2179408  53.6140000  86.1169408  30.6769408  56.5390000
  85.8869408  30.0879408  55.8210000  86.9099408  30.2969408  56.9170000
  84.0979408  42.2559408  59.3850000  83.7049408  43.1289408  59.3770000
  83.3609408  41.6629408  59.5350000  63.7959408  32.6399408  31.5360000
  63.1589408  33.0979408  30.9870000  63.2689408  32.0539408  32.0780000
  89.0779408  52.0099408  56.4940000  89.7929408  51.5059408  56.8830000
  89.4689408  52.4279408  55.7270000  86.4579408  52.1029408  55.8250000
  87.2999408  51.6859408  56.0080000  86.1359408  51.6579408  55.0400000
  84.2699408  59.2149408  54.6630000  84.2869408  58.9489408  55.5820000
  84.4699408  58.4149408  54.1780000  79.3969408  52.8279408  55.2380000
  79.5079408  52.1059408  54.6190000  80.1119408  52.7199408  55.8640000
  80.7379408  33.9019408  50.2470000  80.8629408  33.9519408  49.3000000
  81.6089408  34.0529408  50.6130000  89.0199408  58.8129408  54.3330000
  89.8619408  59.1639408  54.6250000  88.8459408  58.0819408  54.9260000
  76.8359408  31.2099408  57.0900000  77.4759408  30.5949408  57.4500000
  77.1229408  32.0669408  57.4050000  86.1579408  56.4039408  33.9090000
  85.6669408  57.2129408  34.0520000  85.8099408  56.0549408  33.0890000
  83.6199408  54.9529408  52.0760000  82.8519408  54.5989408  51.6270000
  84.1499408  55.3379408  51.3780000  81.2529408  53.5169408  50.7880000
  80.5179408  53.0819408  50.3570000  80.8559408  53.9929408  51.5170000
  63.1729408  59.6979408  53.8650000  62.8949408  59.4999408  52.9710000
  63.6089408  60.5479408  53.7990000  84.4219408  39.4159408  50.1160000
  85.2529408  39.6309408  50.5400000  83.7539408  39.7569408  50.7110000
  62.7039408  51.1609408  30.5350000  61.8629408  51.6189408  30.5440000
  62.8899408  51.0209408  29.6060000  83.9579408  31.6669408  53.3620000
  83.0839408  31.9459408  53.6370000  84.0009408  30.7409408  53.6010000
  88.8059408  46.1259408  59.0390000  89.4149408  46.8549408  58.9240000
  89.3669408  45.3549408  59.1220000  83.5929408  50.4459408  36.1030000
  84.4549408  50.0469408  36.2220000  83.6239408  50.8299408  35.2270000
  81.0189408  51.9559408  47.3460000  80.6409408  52.0609408  48.2200000
  81.4569408  52.7889408  47.1720000  89.3579408  36.4659408  51.7420000
  88.9689408  36.1709408  50.9190000  89.0259408  35.8529408  52.3980000
  65.0389408  50.2599408  53.3180000  65.4329408  50.8059408  53.9980000
  64.2329408  49.9279408  53.7140000  84.5659408  57.9129408  59.5880000
  84.9279408  57.0679408  59.3220000  85.1819408  58.2429408  60.2420000
  82.3159408  30.6029408  30.0200000  82.8489408  30.3259408  30.7650000
  82.9519408  30.8169408  29.3370000  62.0639408  32.4419408  49.6400000
  62.0359408  33.1009408  48.9460000  61.3919408  31.8059408  49.3950000
  80.3859408  54.2079408  53.2040000  80.0829408  55.1069408  53.3300000
  79.8389408  53.6859408  53.7910000  60.8689408  36.2169408  30.9050000
  61.1979408  36.6709408  30.1290000  61.6129408  36.1979408  31.5060000
  64.5629408  55.8619408  55.9740000  63.6279408  56.0279408  56.0910000
  64.7009408  54.9909408  56.3480000  70.0009408  56.2329408  51.9690000
  70.8279408  55.7619408  52.0740000  70.2609408  57.1449408  51.8330000
  64.1209408  43.6749408  73.7610000  64.0209408  44.4239408  74.3480000
  64.6659408  43.0579408  74.2490000  79.4019408  47.0039408  63.4620000
  79.3069408  46.1259408  63.8320000  78.6369408  47.1089408  62.8970000
  66.9639408  57.2739408  64.1330000  66.2589408  56.7169408  64.4630000
  66.9889408  58.0129408  64.7410000  81.1249408  31.1489408  81.7350000
  80.9649408  30.2999408  81.3230000  81.6349408  31.6379408  81.0890000
  66.7109408  48.7099408  81.4700000  66.3839408  49.3649408  82.0880000
  67.6529408  48.8729408  81.4250000  71.8849408  41.9679408  72.0810000
  71.2899408  41.2449408  72.2800000  72.7569408  41.5759408  72.1090000
  65.8789408  36.9689408  68.7010000  65.4139408  36.1719408  68.4480000
  65.9029408  37.4959408  67.9020000  75.1049408  47.8279408  75.6050000
  74.2939408  47.6459408  75.1300000  75.7899408  47.7719408  74.9380000
  60.6359408  44.0729408  68.5360000  59.8129408  44.3929408  68.1640000
  60.9089408  43.3719408  67.9450000  78.8559408  48.6129408  69.2840000
  78.4689408  48.1719408  70.0410000  78.1489408  49.1559408  68.9360000
  69.0639408  38.6819408  77.8260000  68.4579408  38.2489408  78.4280000
  69.3939408  37.9759408  77.2700000  71.2259408  41.3479408  65.7040000
  70.6419408  41.7979408  66.3140000  71.6789408  40.6969408  66.2400000
  77.4669408  45.2269408  77.9080000  77.9479408  45.1439408  78.7320000
  78.1319408  45.1079408  77.2300000  82.0799408  39.5039408  66.3360000
  81.9909408  39.7379408  65.4120000  82.7389408  40.1109408  66.6740000
  65.6149408  43.6859408  68.9500000  65.7649408  43.7169408  69.8950000
  64.7539408  44.0859408  68.8300000  89.3079408  48.9599408  75.2020000
  89.6479408  49.5329408  75.8900000  89.8979408  49.0979408  74.4610000
  72.9309408  55.5519408  74.1980000  73.8639408  55.3599408  74.1090000
  72.5239408  55.1209408  73.4470000  88.0369408  35.5629408  65.5490000
  87.0969408  35.6829408  65.4130000  88.2159408  34.6789408  65.2300000
  78.3629408  51.3589408  60.6810000  77.7089408  52.0489408  60.5670000
  78.2789408  50.8169408  59.8970000  70.6849408  45.9839408  66.6650000
  71.1339408  46.8249408  66.7490000  69.8769408  46.0929408  67.1670000
  88.7999408  39.9389408  75.7730000  87.8609408  39.9999408  75.5990000
  88.8569408  39.5959408  76.6650000  62.3889408  50.7699408  63.8460000
  63.1819408  51.3059408  63.8470000  62.6729408  49.9199408  64.1820000
  77.9779408  44.4559408  70.6650000  77.2519408  44.3639408  70.0480000
  77.7039408  43.9559408  71.4340000  73.5299408  44.6779408  60.5350000
  72.9009408  43.9769408  60.7060000  73.0779408  45.2629408  59.9270000
  76.9329408  52.0279408  73.3670000  77.2779408  52.9039408  73.1980000
  77.6629408  51.4399408  73.1730000  71.7599408  53.1179408  68.5430000
  71.6899408  53.8819408  67.9720000  72.0759408  52.4179408  67.9710000
  74.5309408  56.0489408  61.8910000  75.1549408  56.0429408  61.1650000
  74.9719408  55.5639408  62.5890000  61.5889408  37.8679408  65.1380000
  61.9129408  37.0799408  64.7030000  62.3749408  38.2939408  65.4810000
  64.3779408  31.6949408  76.6380000  63.4469408  31.8319408  76.4640000
  64.7679408  31.5709408  75.7730000  71.0189408  32.1809408  78.1460000
  70.7569408  33.1019408  78.1390000  71.6919408  32.1279408  78.8240000
  75.1549408  30.6799408  68.8720000  74.7649408  31.4279408  68.4200000
  75.0899408  29.9599408  68.2450000  75.4189408  44.0349408  73.0950000
  74.8099408  43.9809408  73.8320000  74.8679408  44.2559408  72.3440000
  66.8749408  56.9259408  69.7580000  67.0919408  57.8089408  70.0560000
  67.0169408  56.9499408  68.8120000  88.5349408  45.5709408  67.6430000
  88.4489408  46.1489408  66.8850000  88.1879408  46.0809408  68.3750000
  68.3539408  36.3839408  63.5020000  69.0179408  36.9059408  63.0520000
  67.9879408  36.9769408  64.1590000  84.3849408  39.4109408  77.3650000
  84.7209408  38.5179408  77.2950000  84.2909408  39.5589408  78.3060000
  67.7939408  43.7699408  67.0920000  67.1589408  43.5089408  67.7590000
  68.3649408  43.0079408  66.9930000  69.0859408  32.8069408  72.3010000
  69.2659408  33.2629408  71.4790000  69.7729408  33.1059408  72.8980000
  75.8509408  43.9929408  69.0110000  75.1649408  44.5659408  68.6690000
  75.4019408  43.1709408  69.2080000  67.6489408  47.3009408  72.5020000
  67.1329408  47.8939408  73.0490000  67.6139408  46.4609408  72.9600000
  82.4549408  33.6049408  62.6640000  81.6819408  33.5749408  62.1000000
  82.7979408  34.4919408  62.5530000  81.2289408  50.5009408  74.9470000
  80.8759408  51.0379408  75.6570000  81.9479408  51.0209408  74.5870000
  71.1919408  56.2969408  61.5580000  71.2509408  57.2469408  61.6600000
  71.6389408  55.9449408  62.3270000  64.6869408  33.6109408  72.3470000
  63.8339408  33.9499408  72.0730000  65.2309408  34.3909408  72.4540000
  71.3659408  50.8169408  72.9800000  71.3449408  51.5859408  72.4090000
  72.2869408  50.5579408  72.9990000  75.5709408  34.5019408  83.2080000
  76.1229408  35.1429408  82.7600000  75.2669408  33.9189408  82.5130000
  74.5329408  49.5259408  67.8070000  74.0209408  48.9609408  68.3850000
  73.9069408  50.1799408  67.4950000  64.9169408  44.0799408  66.0540000
  65.2429408  43.2809408  66.4690000  64.3959408  44.5079408  66.7330000
  71.9419408  34.9309408  78.4310000  72.8109408  35.3169408  78.3240000
  71.7659408  34.9919408  79.3700000  62.9999408  53.7209408  64.9930000
  62.5599408  53.1309408  65.6050000  63.7909408  53.2499408  64.7310000
  69.3909408  35.9979408  73.5600000  68.4679408  35.8209408  73.7410000
  69.5449408  35.6099408  72.6990000  66.4589408  49.0469408  74.2110000
  65.7969408  48.9559408  74.8960000  67.0899408  49.6709408  74.5690000
  72.7269408  34.7419408  73.0350000  73.5559408  34.2759408  72.9230000
  72.3699408  34.4009408  73.8560000  70.9189408  45.5149408  71.9010000
  70.0709408  45.1079408  71.7250000  70.7289408  46.4519408  71.9560000
  71.2779408  38.6519408  69.3500000  71.3409408  37.9429408  69.9910000
  70.6729408  39.2789408  69.7440000  67.3769408  58.8119408  61.6800000
  66.6809408  58.2869408  61.2850000  67.2869408  58.6599408  62.6210000
  75.6899408  48.6069408  64.5490000  75.8669408  48.6029408  63.6090000
  76.2479408  47.9129408  64.9010000  66.0069408  30.8799408  64.4630000
  66.8559408  30.4709408  64.2940000  66.1609408  31.8149408  64.3310000
  69.4119408  38.7209408  66.5640000  69.9009408  38.4549408  67.3430000
  70.0189408  39.2819408  66.0810000  70.9679408  48.3959408  75.9660000
  71.6029408  47.8829408  75.4660000  70.1389408  47.9329408  75.8490000
  69.0729408  40.0809408  69.9790000  69.3089408  40.3209408  70.8750000
  68.1399408  39.8699408  70.0250000  68.6629408  53.0849408  65.7270000
  69.1639408  52.7029408  66.4480000  69.3049408  53.2099408  65.0280000
  72.1909408  33.0269408  66.6490000  72.5829408  33.5069408  67.3790000
  72.8259408  32.3399408  66.4440000  62.7639408  40.3209408  75.9390000
  62.1979408  40.7929408  75.3280000  62.1579408  39.8679408  76.5260000
  63.7929408  35.9289408  78.5460000  64.5359408  35.3939408  78.2680000
  63.0419408  35.5539408  78.0850000  67.2649408  35.4869408  70.7700000
  66.6499408  36.0649408  70.3180000  67.6409408  34.9459408  70.0760000
  64.4899408  34.3149408  68.6110000  63.8189408  33.6769408  68.8510000
  64.7519408  34.0669408  67.7250000  78.2059408  41.1969408  71.0920000
  78.7899408  41.1579408  70.3350000  77.3289408  41.0939408  70.7250000
  72.6159408  32.7419408  62.6460000  72.2479408  33.1119408  61.8440000
  73.2749408  33.3789408  62.9240000  63.9959408  40.0319408  79.2360000
  64.7059408  39.4889408  78.8920000  64.1359408  40.8909408  78.8370000
  73.6049408  39.6929408  63.1680000  74.0819408  38.9459408  63.5280000
  74.2209408  40.4239408  63.2310000  70.6809408  41.2849408  60.4750000
  70.9629408  41.9649408  59.8630000  70.5939408  41.7389408  61.3140000
  66.1979408  58.7859408  67.3920000  65.6229408  59.3219408  67.9370000
  66.9389408  59.3569408  67.1890000  75.6389408  36.6119408  68.9870000
  75.6199408  36.6119408  69.9440000  76.5409408  36.8459408  68.7660000
  76.1629408  50.3279408  69.8410000  75.8969408  50.1039408  68.9500000
  75.7949408  49.6309408  70.3840000  78.8369408  49.6889408  73.6890000
  79.6529408  49.8079408  74.1740000  79.0429408  49.9709408  72.7980000
  67.3569408  44.9479408  74.1060000  66.7409408  44.6609408  74.7800000
  67.7119408  44.1349408  73.7450000  82.1589408  41.9809408  68.6940000
  82.2029408  42.9319408  68.6020000  82.8179408  41.6489408  68.0840000
  61.5759408  31.8369408  72.3790000  61.6699408  31.3979408  71.5340000
  61.7809408  32.7539408  72.1980000  69.7979408  43.5629408  80.7020000
  69.9119408  42.6129408  80.6900000  70.2249408  43.8659408  79.9000000
  70.1429408  38.5439408  62.9460000  70.7999408  38.6049408  62.2530000
  70.5939408  38.8529408  63.7320000  64.7069408  45.4199408  83.1280000
  64.5639408  45.8999408  82.3120000  64.9709408  46.0909408  83.7570000
  62.9149408  46.4549408  74.3630000  63.5279408  47.1049408  74.7050000
  62.2449408  46.3749408  75.0420000  69.9729408  31.6209408  69.1660000
  70.8859408  31.7839408  68.9290000  70.0159408  31.2549408  70.0490000
  72.5159408  39.3919408  67.0440000  72.9239408  38.9559408  66.2950000
  72.6179408  38.7729408  67.7670000  80.6819408  44.5549408  70.8580000
  80.4699408  44.9719408  71.6930000  79.8309408  44.3559408  70.4670000
  65.0659408  42.1979408  78.1450000  65.8319408  41.7159408  77.8330000
  64.6889408  42.5859408  77.3550000  64.4699408  36.9909408  81.0950000
  64.3759408  36.7169408  80.1820000  64.4599408  37.9469408  81.0610000
  76.7989408  38.8369408  81.9130000  76.1259408  38.2629408  81.5470000
  77.3839408  38.2479408  82.3890000  77.3339408  31.3149408  77.3720000
  77.1459408  32.1649408  77.7700000  76.5919408  30.7639408  77.6200000
  64.3569408  54.6489408  73.1330000  65.1819408  55.0809408  72.9100000
  63.8739408  55.2999408  73.6410000  66.0859408  44.8579408  71.4430000
  65.4669408  45.3769408  70.9300000  65.9959408  45.1919408  72.3360000
  73.4409408  46.1729408  68.5040000  73.3789408  45.9409408  67.5780000
  72.7799408  46.8539408  68.6260000  68.5019408  34.1379408  68.6120000
  68.8629408  34.4539408  67.7840000  68.9809408  33.3279408  68.7890000
  69.2219408  59.9579408  79.5540000  69.1209408  59.3189408  78.8490000
  69.7729408  60.6449408  79.1780000  65.8979408  56.1729408  75.7840000
  64.9769408  56.4009408  75.6590000  66.2559408  56.1269408  74.8980000
  64.1719408  38.0399408  66.5580000  63.5999408  38.3309408  67.2680000
  64.3229408  38.8259408  66.0330000  80.9309408  38.1219408  77.8530000
  80.4899408  38.4399408  78.6410000  81.2959408  38.9089408  77.4480000
  63.5469408  59.1949408  74.3880000  63.4529408  58.7309408  73.5560000
  64.0779408  59.9629408  74.1760000  67.6459408  45.5889408  60.5610000
  68.1379408  44.9059408  61.0160000  68.1499408  46.3889408  60.7110000
  69.7719408  32.8839408  65.6410000  70.6209408  32.7349408  66.0590000
  69.7999408  32.3549408  64.8440000  69.0259408  46.3989408  75.6100000
  68.7289408  46.0099408  76.4320000  68.4029408  46.0809408  74.9560000
  84.9449408  40.7089408  82.4340000  84.4059408  40.1399408  82.9830000
  84.3479408  41.3989408  82.1430000  72.9919408  36.0789408  80.9050000
  73.2669408  36.9929408  80.8340000  73.4549408  35.7489408  81.6750000
  79.7759408  47.0209408  66.7930000  79.6259408  47.7959408  66.2530000
  79.1299408  47.0889408  67.4960000  84.9269408  45.3199408  69.5870000
  85.3159408  44.5869408  70.0650000  85.3279408  45.2809408  68.7190000
  65.7419408  41.5499408  72.2860000  65.5099408  41.7689408  73.1890000
  66.5849408  41.9799408  72.1450000  89.0709408  32.3679408  73.5800000
  89.1899408  32.7229408  74.4610000  89.9599408  32.2269408  73.2550000
  75.3469408  37.8619408  73.5700000  75.5059408  37.1419408  72.9600000
  76.2199408  38.1279408  73.8590000  73.9419408  57.7469408  71.2050000
  73.6119408  57.6369408  72.0970000  73.2129408  58.1429408  70.7270000
  62.4759408  43.4329408  71.5170000  62.9669408  43.3179408  72.3310000
  62.3929408  44.3819408  71.4200000  64.0809408  40.9719408  70.1910000
  63.3579408  41.5829408  70.3280000  64.6869408  41.1519408  70.9110000
  62.4699408  32.2689408  69.4860000  61.9209408  33.0069408  69.2190000
  61.8819408  31.5139408  69.4670000  63.0199408  46.0899408  71.5960000
  62.9749408  46.1599408  72.5500000  63.1089408  46.9939408  71.2930000
  72.5739408  44.1909408  76.7410000  72.6879408  43.7449408  75.9010000
  73.3929408  44.6689408  76.8720000  69.4949408  45.9309408  63.8740000
  69.7659408  45.7989408  64.7830000  69.9059408  46.7569408  63.6190000
  68.0449408  48.2839408  77.2700000  67.8129408  47.5769408  77.8720000
  68.2419408  47.8409408  76.4450000  68.0199408  31.0509408  74.0630000
  68.1869408  31.8039408  73.4960000  68.5849408  31.1939408  74.8240000
  72.3299408  53.4389408  64.0320000  71.5709408  52.9229408  63.7610000
  73.0749408  53.0059408  63.6160000  63.8559408  58.2669408  66.1100000
  63.5329408  59.1219408  65.8250000  64.7399408  58.4389408  66.4320000
  62.1229408  52.1309408  77.8600000  62.8419408  51.8089408  77.3180000
  62.3069408  53.0629408  77.9750000  78.9909408  38.3469408  65.9690000
  79.9089408  38.3779408  66.2400000  78.8449408  37.4349408  65.7200000
  65.8029408  46.0779408  64.3120000  66.5949408  45.6419408  63.9980000
  65.6179408  45.6609408  65.1540000  75.6349408  41.6509408  63.7230000
  76.4549408  41.1739408  63.8460000  75.4639408  42.0589408  64.5730000
  73.6209408  45.0579408  71.2560000  72.8359408  45.3699408  71.7060000
  73.5009408  45.3309408  70.3470000  66.7349408  40.4089408  76.9120000
  67.6709408  40.2119408  76.8740000  66.3309408  39.5979408  77.2210000
  69.1019408  49.7299408  82.1000000  69.8669408  49.3959408  81.6300000
  69.3469408  50.6199408  82.3550000  68.8879408  50.4159408  61.5990000
  68.2829408  49.7779408  61.9770000  68.7719408  51.2019408  62.1330000
  73.4439408  30.5639408  65.1250000  74.2609408  30.5429408  65.6220000
  73.7179408  30.5099408  64.2090000  68.1309408  47.3219408  69.6840000
  68.1119408  48.2399408  69.4110000  67.9969408  47.3509408  70.6310000
  71.8609408  38.8709408  60.8180000  71.4729408  39.7019408  60.5460000
  72.8049408  39.0259408  60.7920000  74.0549408  50.7059408  79.8650000
  73.1819408  50.5199408  80.2090000  74.1139408  50.1809408  79.0660000
  68.7819408  44.8269408  70.5120000  67.8989408  44.6719408  70.8490000
  68.7299408  45.6859408  70.0920000  85.7759408  45.5769408  75.5950000
  86.5949408  45.4519408  75.1160000  85.8309408  44.9639408  76.3280000
  74.7319408  35.0299408  66.7360000  75.2879408  34.2539408  66.6670000
  75.2679408  35.6689408  67.2060000  74.8019408  45.4929408  76.8610000
  74.9129408  46.3009408  76.3600000  75.6729408  45.3059408  77.2110000
  87.4529408  42.4809408  72.6510000  86.9679408  41.6609408  72.7380000
  88.3159408  42.2169408  72.3320000  79.8039408  40.9529408  68.8190000
  80.7069408  41.2619408  68.7410000  79.2889408  41.5889408  68.3220000
  73.6759408  42.0399408  68.3110000  72.9579408  42.4469408  68.7970000
  73.3909408  41.1369408  68.1740000  64.4319408  29.9699408  69.1520000
  64.9539408  30.3289408  69.8690000  63.7079408  30.5879408  69.0490000
  63.1979408  45.2869408  67.9950000  62.5999408  45.4139408  67.2590000
  62.7259408  44.7069408  68.5910000  73.4919408  40.2479408  75.4210000
  74.1179408  40.9619408  75.5410000  74.0109408  39.5349408  75.0460000
  88.8019408  36.7519408  75.1170000  88.5949408  36.3399408  74.2790000
  87.9779408  37.1509408  75.3980000  66.3509408  42.5299408  80.8020000
  65.7639408  42.6359408  80.0530000  66.8079408  43.3679408  80.8690000
  62.1939408  32.4329408  75.0200000  61.9859408  32.0149408  74.1840000
  62.7589408  33.1699408  74.7850000  80.3539408  31.1919408  74.3940000
  81.2449408  31.0649408  74.0680000  80.3279408  32.1089408  74.6690000
  72.9529408  48.1909408  64.7110000  72.8259408  48.4779408  65.6150000
  73.8859408  48.3269408  64.5450000  71.2079408  43.2309408  69.6310000
  71.4929408  43.1859408  70.5430000  70.4689408  43.8389408  69.6400000
  65.9609408  31.2959408  70.8390000  66.7089408  31.8909408  70.8830000
  65.2019408  31.8499408  71.0230000  74.0369408  39.3019408  70.0320000
  73.0859408  39.2279408  69.9500000  74.3769408  38.5189408  69.5980000
  73.8409408  45.9929408  79.9150000  73.3829408  45.6059408  79.1690000
  74.1529408  46.8389408  79.5910000  77.9259408  43.8949408  74.1400000
  76.9729408  43.9149408  74.2200000  78.2449408  44.1439408  75.0080000
  77.9639408  34.7779408  60.3340000  77.0519408  35.0459408  60.4500000
  78.1979408  34.3589408  61.1630000  66.0819408  41.7559408  63.1260000
  65.2619408  42.2489408  63.0890000  66.7199408  42.3779408  63.4750000
  80.7849408  41.9599408  77.6010000  81.3309408  41.2469408  77.2700000
  80.9109408  42.6709408  76.9720000  76.0959408  40.7469408  69.5820000
  75.3069408  40.3579408  69.9590000  76.3329408  40.1619408  68.8630000
  71.8799408  41.9409408  63.1400000  71.5959408  41.9629408  64.0530000
  72.2839408  41.0799408  63.0340000  70.6029408  48.1769408  72.3180000
  69.6709408  48.0139408  72.4610000  70.6839408  49.1309408  72.3230000
  76.8019408  50.5669408  75.9690000  77.5409408  49.9729408  75.8380000
  76.7199408  51.0359408  75.1380000  66.3819408  33.8779408  66.2780000
  66.8239408  34.1609408  67.0780000  66.7769408  34.4079408  65.5850000
  77.8219408  40.6709408  84.7140000  77.0509408  40.2079408  84.3860000
  78.5589408  40.2549408  84.2680000  80.9929408  46.8169408  61.4860000
  81.3499408  47.6909408  61.3270000  80.4049408  46.9299408  62.2320000
  87.1529408  43.0869408  76.5300000  87.5009408  42.5009408  77.2020000
  86.4709408  42.5749408  76.0950000  88.4819408  40.9349408  69.6410000
  88.8959408  41.1749408  70.4700000  88.9019408  41.4979408  68.9910000
  74.8989408  56.5689408  68.8670000  74.8359408  56.8249408  69.7880000
  74.8469408  55.6129408  68.8800000  66.4319408  39.2409408  69.6680000
  65.6539408  39.7959408  69.6110000  66.1929408  38.4429408  69.1960000
  77.9739408  40.1959408  64.3400000  78.5639408  40.9399408  64.4650000
  78.2259408  39.5729408  65.0210000  74.5639408  41.3319408  72.5050000
  75.3129408  41.9219408  72.4160000  74.8419408  40.5249408  72.0710000
  65.8949408  49.3489408  70.4970000  65.2319408  49.5939408  71.1420000
  65.4229408  48.8129408  69.8600000  70.5329408  34.8369408  71.0850000
  70.4469408  35.5079408  70.4070000  71.3799408  35.0149408  71.4930000
  68.3729408  53.4639408  73.1860000  69.1639408  53.9339408  72.9220000
  67.6539408  53.9979408  72.8490000  68.0019408  43.8009408  64.2870000
  68.6839408  44.4149408  64.0160000  67.9259408  43.9279408  65.2330000
  68.5919408  50.0079408  71.6570000  67.6919408  49.6829408  71.6220000
  68.5009408  50.9549408  71.7650000  68.5059408  59.5499408  64.7200000
  69.2599408  59.8159408  64.1930000  68.6619408  59.9459408  65.5770000
  64.0379408  57.2559408  69.9530000  64.9729408  57.0479408  69.9550000
  63.9999408  58.1869408  69.7350000  77.8569408  35.7969408  66.3200000
  78.7739408  35.6119408  66.1180000  77.3679408  35.4069408  65.5960000
  84.8209408  37.4299408  68.6100000  84.9309408  36.7309408  67.9650000
  85.4989408  38.0679408  68.3900000  69.6499408  41.8419408  67.8760000
  70.4039408  42.2779408  68.2730000  69.2779408  41.3139408  68.5820000
  77.8409408  41.3329408  81.0730000  77.5779408  40.4969408  81.4570000
  77.0239408  41.8229408  80.9800000  76.4069408  33.6289408  79.0480000
  77.1099408  34.2789408  79.0450000  76.1969408  33.5069408  79.9740000
  71.6449408  38.1269408  83.6070000  71.9199408  37.4939408  84.2710000
  71.9309408  38.9729408  83.9510000  78.3389408  38.6359408  77.0160000
  78.1949408  39.4509408  77.4970000  79.2549408  38.4159408  77.1850000
  67.8239408  39.7049408  61.9020000  68.6989408  39.3949408  62.1340000
  67.3699408  39.7939408  62.7400000  73.4879408  38.3599408  77.7820000
  72.5719408  38.4729408  78.0380000  73.7179408  39.1799408  77.3450000
  87.1329408  43.4899408  66.5760000  86.2129408  43.7239408  66.4540000
  87.5309408  44.2739408  66.9540000  65.3919408  39.8369408  81.5440000
  64.4879408  40.0839408  81.7380000  65.8819408  40.6569408  81.5990000
  75.6989408  43.6459408  81.5090000  74.9289408  44.2119408  81.4530000
  75.7449408  43.3939408  82.4310000  65.3759408  35.8509408  64.5400000
  65.9379408  36.5929408  64.3170000  65.1269408  36.0039408  65.4520000
  81.4999408  50.8909408  81.6630000  81.5299408  51.8449408  81.5890000
  81.2169408  50.5929408  80.7990000  76.1989408  42.7839408  84.3270000
  76.9519408  42.3809408  84.7590000  75.5079408  42.1229408  84.3830000
  80.3079408  42.6819408  81.5200000  79.5659408  42.7069408  82.1230000
  80.0339408  43.2229408  80.7790000  83.5869408  41.2759408  63.3410000
  82.6949408  41.6219408  63.3230000  84.1119408  41.9439408  62.9000000
  67.8799408  56.0279408  83.7110000  68.5289408  56.2299408  83.0370000
  67.0729408  55.8609408  83.2240000  78.4169408  44.7709408  80.7260000
  78.8399408  45.1919408  81.4750000  77.5249408  44.5919408  81.0240000
  74.9759408  45.1649408  83.9550000  75.6309408  45.7189408  83.5300000
  75.4869408  44.4979408  84.4130000  80.1269408  47.4139408  77.2570000
  80.8569408  48.0169408  77.1180000  80.2649408  47.0689408  78.1390000
  77.7229408  39.0149408  74.5310000  78.2079408  39.8399408  74.5330000
  77.7629408  38.7109408  75.4380000  77.0589408  34.2909408  63.6940000
  77.3229408  33.4279408  64.0130000  76.3329408  34.1129408  63.0950000
  72.1429408  43.0499408  83.4810000  72.7959408  43.1569408  82.7890000
  71.8279408  43.9369408  83.6530000  69.2999408  34.7489408  76.6790000
  68.4779408  34.7659408  76.1890000  69.0309408  34.7099408  77.5970000
  70.2849408  39.8869408  72.5980000  70.8409408  39.1149408  72.4900000
  70.1829408  39.9779408  73.5460000  88.8309408  37.2719408  62.2880000
  88.8699408  36.9779408  63.1980000  89.5399408  36.7969408  61.8530000
  77.8369408  35.8009408  78.3520000  78.7399408  35.6199408  78.0890000
  77.7859408  36.7559408  78.3950000  72.3099408  47.8379408  78.4750000
  71.5999408  47.7869408  77.8350000  72.9599408  48.4099408  78.0670000
  81.5769408  40.0929408  73.5580000  80.8019408  40.5149408  73.9290000
  81.6999408  40.5189408  72.7100000  65.6739408  53.6199408  60.0820000
  66.0949408  53.8689408  60.9050000  66.3839408  53.2649408  59.5480000
  63.0279408  48.2679408  61.4330000  63.1569408  49.2159408  61.4620000
  63.8729408  47.9189408  61.1520000  65.6639408  38.1749408  78.2520000
  66.2629408  37.8789408  78.9380000  65.1889408  37.3859408  77.9920000
  65.9109408  36.2639408  83.1760000  65.8639408  35.3079408  83.1610000
  65.2579408  36.5469408  82.5370000  63.5549408  42.7819408  63.2750000
  62.7219408  42.4139408  63.5720000  63.4619408  43.7249408  63.4110000
  80.1159408  33.8369408  75.0270000  80.6079408  34.5009408  74.5440000
  79.2639408  33.8059408  74.5920000  69.1499408  59.6889408  82.5040000
  69.9349408  60.2339408  82.5540000  69.1679408  59.3219408  81.6200000
  69.0229408  40.0999408  83.4030000  68.3649408  40.6929408  83.7660000
  68.5369408  39.3039408  83.1870000  62.6359408  39.1879408  72.6550000
  62.1249408  39.8089408  73.1730000  61.9839408  38.6069408  72.2650000
  70.1199408  31.7629408  63.4120000  69.5699408  31.8339408  62.6310000
  70.9739408  32.0939408  63.1340000  84.7679408  36.0699408  77.1460000
  83.8289408  36.0299408  76.9640000  85.1819408  35.7409408  76.3480000
  65.1569408  41.4689408  75.1180000  64.3929408  41.0489408  75.5120000
  65.9069408  41.0229408  75.5130000  76.3049408  47.8459408  78.6500000
  76.4699408  48.5339408  78.0040000  76.6669408  47.0539408  78.2540000
  71.4229408  31.4139408  82.3640000  71.7979408  31.2949408  83.2370000
  72.1729408  31.6199408  81.8060000  64.3739408  32.0349408  82.5920000
  65.0449408  32.5869408  82.9950000  63.7539408  32.6539408  82.2080000
  67.8019408  46.5439408  67.0640000  67.6149408  45.6139408  67.1890000
  67.8329408  46.9049408  67.9500000  72.7309408  42.2139408  78.9580000
  72.2289408  41.4239408  78.7610000  72.6519408  42.7509408  78.1690000
  67.4109408  38.2469408  82.5390000  67.0039408  37.3889408  82.6570000
  66.8979408  38.6629408  81.8460000  78.8269408  33.5309408  82.3500000
  78.8589408  32.6169408  82.6340000  79.3369408  33.5479408  81.5400000
  73.0339408  44.4019408  63.2410000  73.4299408  44.6769408  62.4150000
  72.6019408  43.5729408  63.0360000  74.6579408  31.6439408  84.3280000
  75.2989408  31.5509408  85.0330000  73.8909408  32.0299408  84.7510000
  69.2199408  40.8319408  80.8010000  68.2959408  40.9889408  80.6070000
  69.2279408  40.5439408  81.7140000  68.1889408  47.1529408  83.5900000
  69.0689408  47.0679408  83.9560000  67.9749408  48.0809408  83.6910000
  67.2109408  38.0059408  65.3860000  66.6419408  38.7579408  65.5510000
  67.9689408  38.1489408  65.9520000  90.1159408  38.1649408  71.4220000
  90.1929408  37.2509408  71.1470000  89.2939408  38.4639408  71.0340000
  81.0649408  39.6399408  62.0140000  81.5329408  39.0169408  62.5690000
  81.5449408  39.6309408  61.1850000  64.8949408  48.8529408  66.4910000
  65.2919408  49.6979408  66.7040000  65.4089408  48.5259408  65.7530000
  60.8779408  59.1329408  61.2170000  61.1779408  59.6449408  60.4660000
  61.0379408  58.2229408  60.9670000  66.9089408  34.5699408  75.4710000
  66.4269408  35.1219408  74.8560000  66.2819408  34.3849408  76.1700000
  76.1519408  46.8349408  66.9130000  75.4469408  46.5409408  66.3350000
  75.7099408  47.0769408  67.7270000  75.4429408  30.1609408  73.2290000
  76.1079408  29.5109408  73.4580000  75.5879408  30.8799408  73.8430000
  84.0269408  49.3799408  81.4100000  84.2849408  48.4959408  81.6720000
  83.1719408  49.5119408  81.8210000  74.3959408  48.1949408  70.7400000
  74.3709408  48.1429408  71.6950000  74.2869408  47.2889408  70.4480000
  64.5679408  42.7609408  83.3450000  64.5269408  43.7069408  83.4870000
  64.8839408  42.6679408  82.4460000  81.5419408  32.2789408  84.3060000
  81.1949408  32.1159408  83.4290000  81.4429408  31.4439408  84.7630000
  74.6329408  53.1429408  70.1660000  74.8209408  53.6079408  69.3500000
  74.7559408  52.2189408  69.9490000  75.3159408  42.0549408  76.3340000
  74.9349408  42.8129408  76.7780000  76.1729408  41.9419408  76.7450000
  82.2929408  47.8109408  83.8080000  82.1829408  47.0259408  84.3450000
  82.7159408  48.4419408  84.3890000  69.7159408  47.2639408  60.6440000
  70.4809408  46.8889408  60.2080000  70.0779408  47.7609408  61.3780000
  67.2109408  41.8149408  84.3940000  66.3699408  42.1359408  84.0660000
  67.5599408  42.5409408  84.9100000  60.1669408  38.8079408  80.3710000
  59.8829408  38.0049408  80.8070000  59.9809408  39.5029408  81.0020000
  71.3649408  39.9299408  78.7550000  70.7509408  39.2719408  78.4300000
  71.2129408  39.9549408  79.7000000  74.3869408  50.9349408  61.0510000
  73.5169408  51.2199408  60.7720000  74.8489408  50.7409408  60.2360000
  70.7769408  39.9669408  75.3550000  71.7099408  40.1599408  75.2610000
  70.7469408  39.1889408  75.9110000  79.8279408  45.7489408  73.0870000
  80.5869408  45.7009408  73.6680000  79.2939408  44.9909408  73.3260000
  88.4329408  31.3169408  77.7720000  88.3759408  30.3929408  78.0160000
  88.3789408  31.7879408  78.6040000  76.9629408  46.6139408  82.6300000
  76.8069408  47.5369408  82.8310000  77.8629408  46.5879408  82.3060000
  86.9299408  41.9079408  61.8610000  86.9209408  42.4829408  62.6270000
  87.6339408  41.2839408  62.0360000  75.8339408  33.3109408  61.4930000
  76.3929408  32.5349408  61.4550000  75.4889408  33.4019408  60.6050000
  60.8749408  33.4179408  83.9600000  60.5559408  32.5409408  83.7490000
  61.6379408  33.5389408  83.3940000  73.8929408  49.7199408  77.2500000
  73.8199408  50.5249408  76.7370000  74.7049408  49.3139408  76.9450000
  70.5189408  37.1779408  75.9270000  70.5439408  36.3239408  76.3590000
  70.1409408  36.9999408  75.0660000  75.9109408  57.6449408  80.9300000
  75.4609408  56.9469408  80.4540000  75.2979408  57.8989408  81.6190000
  77.6369408  60.0739408  82.6510000  77.4279408  59.3739408  82.0330000
  77.3079408  59.7569408  83.4920000  67.9469408  37.0969408  79.7360000
  67.9239408  36.1409408  79.7090000  68.7869408  37.3059408  80.1460000
  76.8989408  59.9439408  65.6780000  76.7499408  59.2089408  66.2740000
  76.6159408  59.6199408  64.8230000  69.8299408  57.2289408  65.4010000
  68.9329408  57.4469408  65.1470000  70.3679408  57.5429408  64.6740000
  61.1219408  36.0539408  69.6410000  60.6489408  36.3209408  68.8530000
  61.9209408  36.5809408  69.6320000  71.1519408  52.9069408  80.7830000
  71.1849408  51.9589408  80.9060000  70.5209408  53.0349408  80.0740000
  71.0869408  55.7069408  67.3250000  70.8939408  56.1889408  68.1280000
  70.7599408  56.2699408  66.6230000  62.6749408  48.7829408  70.9760000
  63.1839408  49.3299408  71.5740000  63.0549408  48.9529408  70.1140000
  73.9669408  45.5319408  65.7910000  74.1179408  44.5939408  65.6770000
  73.3829408  45.7699408  65.0710000  62.1679408  34.6769408  72.0900000
  61.6919408  35.0179408  71.3330000  61.8439408  35.1909408  72.8290000
  69.7219408  58.0699408  68.6160000  69.4219408  58.0619408  67.7080000
  69.1469408  58.6979408  69.0530000  71.7279408  50.3879408  81.2710000
  71.6209408  49.5149408  80.8940000  72.3419408  50.2629408  81.9960000
  88.0529408  55.8899408  72.2050000  88.2489408  56.7309408  72.6180000
  87.0989408  55.8779408  72.1250000  73.8599408  36.7389408  62.4700000
  73.0679408  37.2019408  62.1940000  73.5509408  36.0939408  63.1060000
  64.9999408  59.5199408  78.2440000  65.1339408  59.6689408  79.1800000
  64.6149408  60.3359408  77.9240000  70.5059408  49.8669408  66.1100000
  69.8559408  49.5139408  65.5030000  69.9949408  50.3779408  66.7380000
  73.0909408  35.1259408  64.6640000  73.6829408  35.1169408  65.4160000
  72.3979408  34.5079408  64.8970000  63.3269408  54.6049408  79.3680000
  64.2059408  54.2289408  79.3230000  63.4169408  55.4729408  78.9750000
  60.0379408  51.4779408  64.6990000  60.9309408  51.1549408  64.5830000
  59.4899408  50.8369408  64.2450000  75.7609408  55.8819408  64.7460000
  75.6409408  55.0999408  64.2060000  74.9199408  55.9989408  65.1890000
  74.2179408  50.3289408  73.1910000  74.4609408  51.2159408  72.9250000
  75.0449408  49.9189408  73.4450000  77.6079408  51.4719408  81.4500000
  77.1129408  52.1989408  81.8280000  77.2049408  50.6879408  81.8230000
  72.8429408  54.9729408  81.9030000  72.4879408  54.2539408  81.3800000
  73.3269408  55.5089408  81.2750000  64.6779408  52.4899408  76.5850000
  65.2769408  53.2359408  76.6160000  65.2109408  51.7439408  76.8610000
  65.7979408  51.3969408  66.7650000  66.4539408  51.7799408  67.3470000
  64.9819408  51.4349408  67.2640000  77.4849408  57.6719408  67.7400000
  76.6389408  57.2889408  67.9700000  77.8719408  57.0489408  67.1250000
  62.3099408  48.7869408  65.5240000  61.6629408  48.6259408  66.2120000
  63.1549408  48.6519408  65.9530000  74.3059408  58.7819408  67.3720000
  74.7559408  58.1469408  67.9280000  73.9669408  58.2639408  66.6420000
  84.3189408  54.7159408  74.1060000  84.8969408  53.9829408  73.8980000
  84.5489408  55.3919408  73.4680000  66.4959408  48.9039408  62.3800000
  65.9039408  49.5189408  61.9470000  65.9969408  48.0889408  62.4350000
  76.4369408  49.0669408  81.2430000  76.5039408  48.3559408  80.6060000
  75.6939408  49.5899408  80.9420000  67.2649408  53.0889408  63.3920000
  67.5729408  53.8519408  62.9040000  67.6459408  53.1919408  64.2640000
  70.3759408  53.4779408  77.1180000  69.6279408  53.2069408  77.6500000
  70.5139408  52.7509408  76.5100000  75.4449408  55.1009408  74.0140000
  76.2459408  55.2109408  73.5020000  75.0809408  54.2679408  73.7140000
  69.1669408  35.4379408  65.7480000  68.8509408  35.6709408  64.8750000
  69.4189408  34.5179408  65.6750000  64.2729408  50.1469408  72.5690000
  63.8439408  50.9559408  72.8460000  65.0339408  50.0699408  73.1450000
  63.2469408  45.4839408  63.2100000  63.6359408  46.1419408  62.6340000
  63.7999408  45.4919408  63.9910000  64.1789408  47.7809408  68.9290000
  64.2309408  48.1619408  68.0530000  63.5919408  47.0319408  68.8310000
  71.1639408  59.3629408  74.0990000  71.9599408  59.0219408  74.5070000
  70.8289408  60.0059408  74.7250000  71.2709408  59.4239408  60.7540000
  71.1439408  59.1009408  59.8620000  70.7259408  60.2099408  60.8040000
  70.1639408  44.3359408  77.9330000  69.7059408  43.4989408  77.8530000
  70.9369408  44.2409408  77.3770000  66.7049408  54.8669408  67.0240000
  67.3139408  54.3839408  66.4660000  66.0519408  55.2189408  66.4190000
  60.7809408  47.7779408  63.0700000  61.3749408  47.8329408  63.8190000
  61.3059408  48.0689408  62.3250000  66.9129408  56.0559408  73.0170000
  66.7609408  56.9919408  73.1450000  67.8609408  55.9539408  73.1010000
  69.9689408  55.5049408  71.5150000  70.0609408  56.2039408  72.1630000
  69.5309408  55.9229408  70.7730000  72.8559408  32.0519408  69.6080000
  73.6339408  31.5559408  69.8640000  72.6389408  32.5739408  70.3800000
  70.9059408  52.2719408  61.9450000  70.8709408  51.3879408  61.5790000
  70.4339408  52.8129408  61.3120000  60.6149408  44.7429408  62.4330000
  59.9859408  45.4539408  62.5520000  61.4659408  45.1429408  62.6100000
  75.8529408  53.8829408  67.9390000  75.9139408  53.7729408  66.9900000
  76.7569408  54.0099408  68.2250000  67.6779408  45.6369408  78.2270000
  67.3809408  45.6059408  79.1360000  68.4549408  45.0779408  78.2080000
  64.3649408  52.5619408  70.9050000  63.8259408  53.0119408  71.5560000
  65.0559408  53.1889408  70.6910000  71.6299408  53.2589408  71.2250000
  71.9139408  53.2529408  70.3110000  70.9499408  53.9319408  71.2610000
  63.3079408  52.3489408  74.1740000  63.6449408  53.1049408  73.6930000
  63.8179408  52.3319408  74.9840000  80.0859408  33.0319408  61.4180000
  80.4329408  32.3479408  60.8450000  79.2249408  32.7079408  61.6830000
  88.1769408  32.4219408  80.1510000  87.3749408  32.2089408  80.6290000
  88.4289408  33.2859408  80.4760000  79.2209408  58.9019408  69.3070000
  78.6819408  59.2899408  69.9960000  78.5979408  58.6619408  68.6210000
  60.7819408  46.6869408  75.9170000  60.1779408  46.2529408  76.5200000
  60.3069408  47.4619408  75.6180000  66.7389408  54.1779408  69.9850000
  66.8389408  55.0859408  70.2700000  66.8689408  54.2079408  69.0370000
  70.4329408  31.4439408  75.7220000  70.5989408  31.4719408  76.6650000
  70.7079408  32.3039408  75.4050000  63.3309408  49.3729408  78.2010000
  62.4419408  49.5659408  78.5000000  63.8949408  49.6769408  78.9110000
  86.3379408  38.5209408  74.7070000  85.9319408  39.3879408  74.7270000
  85.5999408  37.9109408  74.7000000  63.1059408  51.9459408  68.1800000
  63.4189408  52.7029408  68.6760000  62.1519408  52.0229408  68.2010000
  75.4369408  53.2539408  80.0090000  76.0059408  53.1119408  79.2530000
  75.0009408  52.4129408  80.1430000  67.0619408  51.4499408  69.2770000
  67.2629408  52.2119408  69.8210000  66.5489408  50.8769408  69.8470000
  72.0659408  58.8869408  69.7040000  71.2279408  58.5389408  69.3980000
  72.5209408  59.1529408  68.9050000  71.2699408  56.0949408  76.5260000
  71.8939408  56.0249408  75.8040000  71.2699408  55.2259408  76.9290000
  70.8659408  48.4719408  62.7640000  70.6719408  49.4039408  62.8690000
  71.5619408  48.2989408  63.3990000  73.6439408  30.4429408  61.8470000
  72.8629408  30.2199408  61.3410000  73.6489408  31.3999408  61.8730000
  63.1739408  30.5829408  64.5740000  64.1289408  30.6499408  64.5680000
  62.8779408  31.4079408  64.9580000  69.4209408  51.4549408  67.9740000
  68.8169408  51.4819408  68.7160000  70.2109408  51.8929408  68.2920000
  88.8549408  53.9129408  70.4620000  88.1329408  53.2899408  70.3720000
  88.5459408  54.5469408  71.1090000  69.8059408  45.8759408  81.7940000
  68.8959408  46.1509408  81.9020000  69.7489408  44.9669408  81.5000000
  67.9939408  51.3219408  74.6600000  68.8919408  51.3319408  74.9910000
  67.9779408  52.0019408  73.9870000  85.4639408  55.1709408  68.5830000
  84.5769408  55.4189408  68.3240000  85.9009408  54.9499408  67.7600000
  84.4759408  50.8279408  79.0240000  85.3199408  51.0919408  78.6570000
  84.7019408  50.2359408  79.7420000  72.9509408  31.3049408  72.5350000
  73.5739408  30.6049408  72.7320000  72.1069408  30.9639408  72.8300000
  89.8429408  56.8959408  68.9490000  89.2369408  56.1979408  68.6960000
  90.4319408  56.4839408  69.5810000  73.2739408  56.0209408  65.5640000
  73.0779408  55.8549408  66.4860000  72.5129408  55.6839408  65.0920000
  73.9679408  53.1959408  72.7510000  73.0609408  53.1179408  72.4530000
  74.4749408  53.3119408  71.9480000  67.9659408  53.2009408  84.6000000
  68.6309408  52.7009408  84.1270000  67.9549408  54.0549408  84.1660000
  88.8189408  58.9629408  79.5480000  89.3499408  58.7979408  80.3270000
  87.9169408  58.8389408  79.8420000  67.1999408  32.1849408  79.7970000
  67.7519408  31.4189408  79.6400000  66.4489408  31.8439408  80.2840000
  76.6659408  42.2829408  61.1970000  76.1439408  43.0379408  60.9240000
  76.2319408  41.9649408  61.9890000  71.4439408  45.8639408  83.9440000
  72.0879408  46.3889408  83.4680000  70.7859408  45.6379408  83.2870000
  74.5009408  42.8519408  65.8720000  74.3729408  42.6739408  66.8040000
  73.6179408  42.8409408  65.5020000  70.8959408  49.7499408  69.9370000
  70.1039408  49.8069408  70.4710000  71.6099408  49.9329408  70.5480000
  79.0259408  44.6979408  65.6060000  79.1789408  45.5409408  66.0320000
  78.8219408  44.0999408  66.3250000  66.7689408  58.4729408  74.2330000
  67.3599408  59.2059408  74.4070000  65.9639408  58.6979408  74.6990000
  87.3529408  30.3099408  72.8330000  87.5099408  29.6729408  73.5300000
  87.9369408  31.0399408  73.0390000  72.1129408  48.3489408  67.7370000
  71.7449408  48.5769408  68.5910000  71.5649408  48.8179408  67.1070000
  84.6629408  49.5749408  72.4850000  84.9049408  48.8659408  73.0800000
  84.1909408  49.1409408  71.7740000  61.4539408  59.7109408  75.8930000
  61.4329408  60.6619408  76.0040000  62.2849408  59.5399408  75.4500000
  66.8329408  50.5419408  77.8900000  67.4509408  49.8449408  77.6710000
  66.2749408  50.1639408  78.5700000  85.2199408  44.8659408  61.3530000
  85.3179408  44.0859408  60.8060000  84.4369408  45.3009408  61.0120000
  78.8679408  57.6099408  63.3490000  79.7269408  57.3279408  63.6620000
  78.2529408  57.2769408  64.0020000  68.3579408  34.1779408  61.8600000
  68.4489408  34.8209408  62.5630000  67.5369408  33.7239408  62.0540000
  71.2019408  58.7629408  63.4690000  71.2119408  59.5939408  63.9450000
  71.6049408  58.9659408  62.6240000  66.1329408  53.5059408  80.1000000
  66.3269408  53.2889408  79.1880000  66.9599408  53.8419408  80.4480000
  70.2109408  58.4339408  71.9620000  71.0079408  58.2959408  71.4500000
  70.5229408  58.6039408  72.8510000  61.6809408  58.4499408  67.5820000
  62.3499408  57.9409408  67.1260000  60.8959408  57.9039408  67.5440000
  85.9239408  52.7609408  73.2040000  85.7279408  52.7439408  72.2670000
  86.0819408  51.8459408  73.4340000  79.3099408  56.6769408  74.0320000
  79.6109408  56.8749408  74.9190000  79.3619408  55.7229408  73.9680000
  63.3539408  54.7089408  69.0660000  63.7559408  55.5449408  69.3010000
  62.5179408  54.9489408  68.6650000  61.4129408  56.7549408  60.3960000
  62.1889408  57.0679408  59.9310000  61.2349408  55.8959408  60.0140000
  89.6089408  57.8679408  75.3230000  90.1049408  57.1339408  74.9590000
  90.2649408  58.5469408  75.4810000  82.3659408  44.6299408  68.6880000
  81.7399408  44.6659408  69.4110000  83.1379408  45.0919408  69.0160000
  61.5119408  49.0599408  73.6060000  60.8219408  49.4449408  73.0660000
  62.0049408  48.5029408  73.0030000  63.9449408  56.8669408  78.1460000
  63.7629408  56.8199408  77.2080000  64.4529408  57.6719408  78.2510000
  73.2799408  52.0519408  75.6120000  72.3279408  51.9589408  75.6370000
  73.5199408  51.8259408  74.7140000  72.9559408  51.3659408  66.3640000
  73.4859408  51.8059408  65.6990000  72.4029408  50.7609408  65.8690000
  63.4409408  36.1809408  61.9050000  64.0029408  36.8479408  61.5100000
  63.9759408  35.7989408  62.6010000  77.0119408  53.5979408  60.0990000
  77.4669408  54.3679408  60.4400000  76.1409408  53.9179408  59.8630000
  78.2589408  42.5979408  67.4360000  77.7069408  41.9699408  66.9700000
  77.6589408  43.0499408  68.0290000  60.1369408  33.5589408  65.8370000
  59.9919408  32.6449408  65.5950000  60.0729408  33.5669408  66.7920000
  86.3759408  53.1479408  82.1470000  85.9069408  53.8409408  81.6830000
  87.2419408  53.1299408  81.7400000  72.6159408  52.0489408  84.5270000
  72.7129408  51.7699408  85.4380000  73.1399408  51.4229408  84.0270000
  64.7479408  56.4299408  62.0810000  64.8309408  55.7089408  62.7050000
  63.9279408  56.8609408  62.3190000  69.2759408  56.4629408  74.7030000
  69.7309408  56.2569408  75.5190000  69.1089408  57.4049408  74.7520000
  83.3719408  59.3539408  76.9710000  83.3079408  58.3989408  76.9860000
  82.9949408  59.6059408  76.1290000  76.2559408  53.4489408  82.4580000
  75.9049408  53.5529408  81.5740000  75.4959408  53.5559408  83.0320000
  66.9949408  45.9949408  80.7340000  66.4209408  45.7369408  81.4560000
  66.9939408  46.9519408  80.7580000  76.4109408  57.9309408  76.0400000
  76.7929408  58.4529408  76.7440000  76.9819408  58.0879408  75.2870000
  74.1419408  54.1589408  84.0840000  73.6309408  53.3779408  84.2940000
  73.5819408  54.6599408  83.4910000  73.5379408  46.9969408  82.3460000
  74.1009408  46.3869408  82.8230000  73.4289408  46.5979408  81.4830000
  73.4829408  49.4799408  83.5240000  73.6019408  48.6709408  83.0260000
  74.1959408  49.4769408  84.1620000  65.5179408  50.8639408  60.6340000
  64.6129408  50.9029408  60.3240000  65.8689408  51.7369408  60.4600000
  74.6979408  55.7839408  79.6430000  74.8279408  55.7939408  78.6940000
  74.6369408  54.8559408  79.8670000  65.6269408  55.5319408  82.0670000
  66.1349408  55.9269408  81.3580000  65.2669408  54.7309408  81.6870000
  84.5209408  47.0009408  82.3890000  85.1209408  46.3069408  82.6620000
  83.6929408  46.7869408  82.8180000  70.6369408  51.0749408  75.7480000
  71.0509408  50.3259408  76.1760000  70.8889408  50.9959408  74.8280000
  74.6019408  58.8039408  83.5100000  75.1489408  58.3629408  84.1610000
  74.6489408  59.7299408  83.7450000  77.2359408  55.8399408  84.2300000
  77.9919408  55.7569408  83.6490000  76.6439408  55.1399408  83.9550000
  76.3829408  55.0279408  76.5230000  75.9809408  54.9789408  75.6560000
  76.6939408  55.9299408  76.5930000  59.8979408  55.6919408  82.9550000
  59.7849408  54.8959408  83.4740000  60.8379408  55.7319408  82.7780000
  68.7329408  55.2859408  62.7840000  69.4529408  55.3559408  62.1580000
  68.2929408  56.1349408  62.7390000  86.7709408  33.6649408  82.7270000
  86.7729408  32.8369408  83.2070000  87.3549408  34.2339408  83.2270000
  69.9189408  33.5539408  81.8240000  69.1149408  33.4609408  82.3350000
  70.5089408  32.8899408  82.1800000  68.4839408  42.6569408  72.7750000
  68.7579408  43.2109408  72.0450000  69.2489408  42.1129408  72.9640000
  64.8689408  52.0059408  64.4930000  65.4839408  52.3369408  63.8380000
  65.3879408  51.9349408  65.2950000  61.1839408  53.8679408  62.2820000
  61.7039408  53.3719408  61.6500000  61.6219408  53.7219408  63.1200000
  61.2759408  50.9209408  82.3260000  61.5259408  50.2529408  81.6880000
  61.9619408  51.5849408  82.2600000  67.4129408  56.2019408  80.0570000
  67.4249408  56.6489408  79.2110000  68.2419408  56.4469408  80.4690000
  81.6459408  55.8579408  79.2480000  81.8839408  55.4889408  78.3980000
  81.1379408  55.1669408  79.6750000  86.5009408  53.4099408  63.8900000
  87.2679408  53.2959408  63.3290000  86.1529408  54.2679408  63.6490000
  72.1069408  58.3369408  82.1520000  72.8629408  58.3479408  82.7390000
  71.9139408  59.2609408  81.9920000  66.9049408  59.6589408  84.4020000
  67.4049408  59.1249408  85.0190000  67.5369408  59.8999408  83.7250000
  75.8789408  32.1039408  81.6990000  75.5149408  31.9559408  82.5720000
  76.7829408  31.7959408  81.7610000  68.8949408  51.6709408  79.8570000
  68.2309408  51.5909408  79.1720000  68.9859408  50.7849408  80.2080000
  79.3409408  49.3989408  80.3370000  79.0289408  49.1119408  79.4790000
  78.5439408  49.5879408  80.8320000  73.0649408  31.5539408  80.0000000
  73.9649408  31.6039408  80.3230000  72.9399408  30.6309408  79.7800000
  70.1359408  52.0139408  83.1660000  70.2959408  52.4989408  82.3560000
  70.9959408  51.9489408  83.5810000  78.4869408  38.0279408  61.6070000
  79.1999408  38.3819408  62.1380000  78.0509408  38.7999408  61.2450000
  67.1399408  57.5469408  77.6840000  66.8289408  57.2759408  76.8200000
  66.5409408  58.2459408  77.9460000  75.7979408  58.7229408  63.2530000
  75.6619408  57.7969408  63.0530000  75.1299408  59.1799408  62.7420000
  69.0859408  31.1759408  61.1750000  68.4019408  30.5059408  61.1510000
  68.6729408  31.9539408  60.8020000  68.0329408  59.1679408  70.5370000
  68.6119408  58.8459408  71.2270000  67.5109408  59.8489408  70.9610000
  72.8329408  46.8609408  73.8650000  72.4649408  45.9809408  73.9370000
  72.1939408  47.3459408  73.3420000  65.5019408  30.1759408  80.8970000
  65.1519408  30.8029408  81.5300000  65.3639408  29.3209408  81.3060000
  74.6709408  37.7959408  65.3550000  75.3629408  37.6749408  64.7050000
  74.3999408  36.9069408  65.5840000  72.2429408  36.3459408  67.8770000
  73.0639408  35.9189408  67.6340000  71.5769408  35.9019408  67.3520000
  84.9609408  45.1169408  66.4150000  84.0719408  45.3439408  66.1410000
  85.4919408  45.8699408  66.1570000  79.3769408  37.5459408  72.7920000
  79.5639408  37.9789408  71.9590000  78.9799408  38.2279408  73.3340000
  89.9389408  42.9329408  80.1570000  89.2409408  43.5489408  79.9330000
  89.5489408  42.0699408  80.0180000  83.4369408  38.0999408  74.6000000
  83.0629408  38.4679408  73.7990000  83.0709408  37.2169408  74.6520000
  87.4789408  33.9939408  70.6530000  87.3369408  34.2939408  69.7560000
  87.7139408  33.0699408  70.5640000  84.1399408  31.3499408  70.9420000
  83.2239408  31.4689408  71.1920000  84.1099408  30.7419408  70.2040000
  60.0609408  36.7279408  77.5830000  60.7789408  37.3319408  77.7720000
  59.7179408  37.0209408  76.7390000  79.3879408  42.0239408  61.7080000
  78.4449408  42.1189408  61.5730000  79.5609408  41.0969408  61.5410000
  78.6229408  34.8899408  72.5080000  79.1929408  34.4829408  71.8550000
  78.9969408  35.7609408  72.6440000  88.2209408  53.3229408  74.8680000
  87.5639408  53.4529408  74.1850000  89.0359408  53.1649408  74.3900000
  87.7609408  32.7849408  63.9490000  88.2159408  32.0179408  63.6010000
  87.0409408  32.9349408  63.3370000  75.8699408  37.0169408  60.6600000
  75.2029408  36.8519408  61.3270000  76.4569408  37.6569408  61.0610000
  85.9399408  35.4359408  74.7680000  86.1589408  35.8389408  73.9280000
  85.7629408  34.5199408  74.5560000  85.4509408  36.9699408  65.4990000
  84.8859408  36.2069408  65.3780000  85.7639408  37.1789408  64.6180000
  60.4629408  52.8909408  73.2580000  60.2129408  51.9829408  73.0880000
  61.3599408  52.8359408  73.5870000  78.4659408  53.8039408  69.1880000
  78.8379408  54.6159408  68.8460000  78.9149408  53.1109408  68.7040000
  76.7079408  37.0059408  63.8860000  77.1969408  37.5149408  63.2390000
  76.7849408  36.0999408  63.5860000  65.6159408  33.9159408  77.9620000
  66.1299408  33.4149408  78.5940000  65.1099408  33.2559408  77.4870000
  85.2969408  35.6169408  79.7390000  86.1719408  35.2819408  79.5430000
  84.9219408  35.8239408  78.8830000  70.5079408  37.1349408  80.9140000
  71.3479408  36.7929408  80.6060000  70.6289408  37.2549408  81.8560000
  65.4309408  38.9249408  73.3460000  64.5449408  38.8439408  73.6980000
  65.4069408  39.7229408  72.8170000  89.5329408  30.6999408  63.3760000
  90.1959408  30.7629408  62.6890000  89.1429408  29.8339408  63.2540000
  79.1209408  41.3209408  73.8360000  78.7309408  41.3989408  72.9650000
  78.7629408  42.0599408  74.3270000  83.4509408  46.6139408  77.9200000
  83.0099408  47.2459408  77.3520000  82.8429408  46.4799408  78.6470000
  61.2429408  55.3819408  71.0890000  61.8839408  54.7989408  70.6820000
  60.4409408  54.8619408  71.1370000  60.5589408  33.4369408  62.1060000
  60.9039408  33.9419408  61.3700000  59.6199408  33.3699408  61.9320000
  85.4529408  53.0009408  66.3470000  86.1639408  52.5919408  66.8410000
  85.8259408  53.1649408  65.4810000  79.8289408  42.1619408  64.8400000
  80.2879408  42.3219408  65.6640000  79.5549408  43.0299408  64.5450000
  85.5609408  41.1319408  75.4750000  85.1189408  40.5969408  76.1340000
  84.8589408  41.6419408  75.0700000  61.6959408  44.5629408  65.6540000
  61.0739408  44.5129408  64.9270000  61.7619408  43.6639408  65.9750000
  86.7429408  33.6139408  77.8620000  86.4659408  34.0829408  77.0750000
  86.0469408  32.9769408  78.0200000  81.6259408  49.4869408  61.2030000
  82.4039408  49.0829408  61.5860000  81.3859408  50.1789408  61.8190000
  89.2179408  53.7659408  65.8380000  89.3659408  54.3189408  65.0710000
  89.4309408  52.8809408  65.5410000  81.2669408  30.7559408  68.5830000
  81.3999408  31.0999408  69.4660000  80.5919408  30.0849408  68.6870000
  87.0209408  30.6149408  83.3560000  86.1119408  30.3729408  83.1770000
  87.4589408  29.7839408  83.5400000  87.0549408  50.3509408  73.5330000
  86.2059408  50.0659408  73.1960000  87.4329408  49.5649408  73.9270000
  83.3629408  35.0449408  71.8150000  83.7649408  35.8809408  71.5770000
  84.1039408  34.4649408  71.9930000  84.9759408  31.0289408  80.1130000
  84.6729408  31.3969408  79.2830000  84.4759408  31.4979408  80.7810000
  82.5319408  53.9129408  76.2690000  83.3199408  53.8259408  76.8050000
  82.8589408  54.0669408  75.3830000  86.3219408  37.4929408  83.9420000
  86.3019408  36.7529408  84.5480000  87.1049408  37.9849408  84.1900000
  60.1739408  41.8329408  71.6060000  60.4409408  41.6049408  72.4960000
  60.8999408  42.3529408  71.2630000  85.7369408  49.1459408  68.1800000
  84.8499408  49.1279408  68.5390000  86.1869408  48.4239408  68.6170000
  76.6539408  39.5689408  67.1000000  76.2859408  39.1019408  66.3490000
  77.5579408  39.2609408  67.1550000  78.3429408  55.7469408  66.0430000
  78.8659408  54.9999408  65.7510000  77.5969408  55.7659408  65.4440000
  64.7929408  55.8129408  65.2480000  64.3529408  56.6369408  65.4600000
  64.0799408  55.1949408  65.0880000  83.2419408  53.1659408  70.4920000
  82.9709408  53.7249408  69.7630000  82.5509408  52.5069408  70.5570000
  85.7379408  56.5139408  76.0000000  85.5399408  55.6189408  75.7260000
  84.8859408  56.8929408  76.2160000  60.0309408  36.3349408  67.2890000
  59.4529408  35.8939408  66.6650000  60.7089408  36.7369408  66.7450000
  65.4109408  31.6389408  74.1010000  66.3529408  31.5459408  73.9540000
  65.1199408  32.2449408  73.4200000  72.0409408  33.7889408  60.3090000
  71.4489408  34.5119408  60.1020000  72.7159408  33.8299408  59.6310000
  84.4599408  32.0869408  77.5660000  84.6979408  32.1839408  76.6440000
  83.9199408  31.2969408  77.5930000  68.5499408  34.3989408  79.4280000
  69.1569408  34.0959408  80.1040000  67.8149408  33.7869408  79.4750000
  81.2339408  31.7299408  71.0500000  81.0569408  31.7479408  71.9900000
  81.0979408  32.6329408  70.7630000  82.1169408  36.2239408  76.4610000
  81.5759408  36.8179408  76.9810000  81.6809408  36.1839408  75.6100000
  87.9949408  31.5439408  69.2960000  87.6689408  30.7739408  69.7610000
  87.5859408  31.4939408  68.4320000  64.1849408  49.2609408  75.5620000
  63.2749408  49.4589408  75.3410000  64.2369408  49.3929408  76.5080000
  81.5719408  46.0879408  79.4610000  81.2589408  46.5549408  80.2350000
  82.0279408  45.3219408  79.8100000  84.5889408  42.8039408  78.0590000
  85.3309408  42.2919408  77.7360000  84.9889408  43.5189408  78.5550000
  62.6959408  34.0899408  81.8710000  62.3059408  33.5869408  81.1560000
  62.9999408  34.8979408  81.4560000  89.8669408  52.4849408  83.7190000
  90.5199408  52.0109408  83.2050000  89.1229408  52.5889408  83.1250000
  82.9719408  59.7709408  66.6800000  82.3179408  60.1079408  67.2920000
  83.6439408  59.3789408  67.2390000  90.0319408  39.3559408  67.3470000
  89.0959408  39.2539408  67.5190000  90.1719408  38.9109408  66.5120000
  72.1399408  37.4559408  72.2220000  73.0799408  37.4309408  72.0430000
  71.9669408  36.6499408  72.7080000  82.2569408  42.3619408  71.4830000
  81.7519408  43.1539408  71.2990000  82.2079408  41.8529408  70.6740000
  87.9939408  38.9349408  78.7130000  88.8849408  38.7869408  79.0320000
  87.4419408  38.4079408  79.2910000  62.6369408  38.9269408  68.6340000
  63.0599408  39.1289408  69.4690000  61.7709408  39.3279408  68.7010000
  61.9669408  38.2519408  78.4270000  62.8179408  38.6559408  78.5950000
  61.4089408  38.5619408  79.1400000  87.5039408  35.9579408  72.6760000
  87.6349408  35.1329408  72.2080000  87.4329408  36.6169408  71.9850000
  66.0659408  33.5049408  63.3350000  65.7129408  34.3689408  63.5490000
  65.3759408  33.0859408  62.8200000  80.1629408  33.2489408  67.1740000
  80.7889408  32.6829408  67.6270000  79.4289408  33.3299408  67.7820000
  76.8479408  59.6619408  70.6200000  76.3209408  59.0759408  71.1630000
  76.2789408  59.8849408  69.8840000  65.8869408  40.2809408  65.3640000
  65.6359408  40.8369408  66.1020000  65.8729408  40.8659408  64.6070000
  82.0509408  57.8479408  81.3780000  82.2919408  57.3129408  80.6220000
  82.4079408  58.7149408  81.1820000  86.0049408  58.4509408  80.5770000
  85.3879408  57.8689408  80.1320000  85.6789408  59.3319408  80.3920000
  75.9519408  45.9449408  60.6750000  75.0699408  45.6069408  60.8280000
  76.3909408  45.2529408  60.1800000  82.1649408  37.7679408  68.6350000
  83.0789408  37.4839408  68.6030000  82.1279408  38.5239408  68.0490000
  84.3869408  40.8979408  67.2380000  84.6949408  41.3449408  68.0260000
  85.0989408  41.0059408  66.6070000  80.4669408  57.5979408  76.5020000
  80.0149408  58.4079408  76.7400000  79.9129408  56.9009408  76.8520000
  77.1799408  54.4859408  71.5940000  77.1339408  54.0919408  70.7230000
  77.8769408  55.1389408  71.5260000  87.1109408  37.9229408  70.7590000
  86.6699408  38.6599408  71.1820000  87.2859408  38.2279408  69.8680000
  84.4309408  38.2329408  60.1660000  84.9999408  38.8329408  59.6840000
  84.9499408  37.9689408  60.9260000  87.6649408  47.8339408  80.4340000
  87.0099408  47.9209408  81.1270000  87.7929408  48.7259408  80.1110000
  80.4459408  35.7249408  65.9510000  80.6899408  34.9389408  66.4390000
  81.2809408  36.0999408  65.6680000  64.0989408  47.2339408  80.9040000
  63.5579408  47.6299408  80.2210000  64.7849408  47.8809408  81.0720000
  83.0409408  55.6989408  67.7480000  82.2169408  56.1149408  67.4950000
  83.0589408  54.8799408  67.2530000  75.0709408  33.1099408  71.9730000
  75.9309408  32.7019408  71.8700000  74.5769408  32.4959408  72.5170000
  61.2549408  36.8109408  74.1630000  60.3669408  36.7379408  74.5100000
  61.5479408  37.6809408  74.4330000  61.2039408  48.3319408  68.1590000
  61.7869408  48.4599408  68.9080000  60.4139408  47.9419408  68.5330000
  70.8509408  48.0429408  80.5640000  71.5169408  47.8769408  79.8970000
  70.6929408  47.1879408  80.9640000  85.3289408  43.5029408  71.5810000
  85.0329408  44.2309408  72.1270000  86.1189408  43.1829408  72.0170000
  87.1119408  57.8559408  74.3000000  86.6299408  57.3489408  74.9530000
  88.0099408  57.8809408  74.6300000  84.7879408  32.1149408  65.8990000
  84.1839408  31.3719408  65.9120000  85.6579408  31.7159408  65.9040000
  79.4179408  45.1679408  76.0930000  80.2329408  44.6729408  76.0060000
  79.6999408  46.0539408  76.3210000  87.7659408  43.5989408  63.8470000
  87.7389408  43.8419408  64.7720000  87.9009408  44.4269408  63.3850000
  65.1689408  44.5189408  76.3780000  65.8409408  44.4369408  77.0540000
  64.4199408  44.9079408  76.8290000  84.5049408  33.7859408  68.3370000
  84.6659408  33.1259408  67.6630000  85.3689408  33.9629408  68.7110000
  87.8919408  45.9599408  61.8140000  87.0629408  45.4949408  61.6950000
  88.2699408  46.0039408  60.9360000  81.4209408  35.9589408  73.7260000
  80.7449408  36.4539408  73.2630000  82.0389408  35.6999408  73.0420000
  64.4059408  40.8699408  61.0480000  63.6999408  41.4429408  61.3470000
  65.1239408  41.0339408  61.6600000  77.9489408  47.1749408  71.2960000
  77.9059408  46.2389408  71.0990000  78.8179408  47.2979408  71.6800000
  85.4809408  41.9639408  69.4060000  85.1199408  42.5119408  70.1030000
  86.2799408  41.5939408  69.7810000  87.2379408  34.9699408  68.0610000
  87.3909408  35.8909408  68.2740000  87.5609408  34.8749408  67.1650000
  76.7859408  48.4209408  61.6810000  76.7219408  47.5299408  61.3370000
  77.4129408  48.8559408  61.1040000  82.8489408  43.5719408  79.9600000
  83.5609408  43.2709408  79.3950000  82.1069408  43.0129408  79.7290000
  83.2589408  30.4689408  74.2250000  83.7039408  29.7619408  73.7580000
  83.9489408  31.1049408  74.4120000  68.5139408  48.9249408  64.6940000
  68.4449408  47.9949408  64.9100000  67.8739408  49.0569408  63.9950000
  60.9149408  42.1979408  63.5130000  60.7669408  42.8599408  62.8380000
  60.2449408  41.5339408  63.3490000  76.2619408  35.6629408  71.8050000
  77.1559408  35.3529408  71.9450000  75.7269408  34.8699408  71.8260000
  85.2609408  32.5219408  75.1500000  86.1599408  32.1979408  75.2140000
  85.1129408  32.6349408  74.2110000  86.0369408  39.7699408  72.4210000
  86.3529408  39.1019408  73.0300000  85.0999408  39.8379408  72.6050000
  83.0209408  38.4339408  63.5050000  83.2149408  39.3699408  63.4500000
  83.4379408  38.1499408  64.3190000  78.3969408  31.7669408  64.5070000
  78.1719408  31.0319408  65.0770000  79.3529408  31.8069408  64.5340000
  89.4079408  50.4649408  72.4830000  88.5159408  50.4729408  72.8300000
  89.2959408  50.4509408  71.5330000  79.9099408  38.3669408  70.0660000
  79.9099408  39.2509408  69.6990000  80.6139408  37.9149408  69.6030000
  82.3429408  47.8229408  73.7280000  82.4789408  48.5569408  74.3260000
  81.4959408  47.9999408  73.3180000  78.5539408  48.9259408  84.6820000
  78.7939408  48.2999408  85.3660000  79.3529408  49.4279408  84.5250000
  60.9789408  41.7839408  66.4660000  60.8059408  41.5689408  65.5490000
  60.8379408  40.9619408  66.9360000  78.5449408  36.2349408  68.9460000
  78.6869408  36.3049408  68.0020000  78.8589408  37.0669408  69.2990000
  77.5829408  32.1169408  71.6990000  77.5359408  31.9249408  72.6360000
  77.4419408  31.2719408  71.2740000  83.0879408  36.0449408  62.2860000
  83.1179408  36.9629408  62.5550000  82.5769408  36.0479408  61.4770000
  79.4299408  59.0179408  60.8690000  80.3869408  59.0099408  60.8630000
  79.1899408  58.4979408  61.6360000  89.4029408  51.3029408  76.8030000
  89.1189408  52.1149408  76.3830000  90.2919408  51.4879408  77.1050000
  89.9999408  33.3119408  68.7350000  89.2879408  32.6869408  68.8720000
  89.6239408  34.1599408  68.9690000  67.9229408  30.9289408  67.0610000
  68.3859408  31.4039408  67.7510000  67.6119408  31.6119408  66.4670000
  86.0629408  36.2019408  62.8730000  86.7759408  36.4759408  62.2960000
  85.4759408  35.7009408  62.3070000  85.4119408  50.8149408  61.5320000
  85.4999408  50.9999408  60.5970000  86.2239408  50.3649408  61.7650000
  88.3659408  35.4669408  79.3010000  88.8039408  35.9929408  78.6320000
  88.0599408  34.6899408  78.8330000  80.9419408  34.3839408  77.7550000
  80.5819408  33.9059408  77.0080000  81.5239408  35.0359408  77.3640000
  89.4049408  39.7769408  61.2160000  89.7829408  39.6169408  60.3520000
  88.8879408  38.9919408  61.4010000  81.4199408  43.2069408  84.2540000
  81.6209408  42.3409408  84.6100000  81.2789408  43.0559408  83.3200000
  89.1759408  40.3779408  82.4850000  88.2839408  40.5879408  82.2080000
  89.0939408  40.1619408  83.4140000  87.5159408  41.6489408  78.8270000
  87.5849408  40.6959408  78.7670000  87.6049408  41.8379408  79.7610000
  88.1189408  43.0759408  83.9840000  88.7619408  42.6759408  84.5710000
  87.4529408  43.4369408  84.5690000  81.7639408  43.3609408  62.3840000
  81.7739408  43.7069408  61.4920000  80.9559408  42.8499408  62.4340000
  88.0309408  55.7699408  60.2010000  87.6519408  56.3839408  59.5710000
  88.7909408  56.2309408  60.5560000  62.9169408  40.2559408  82.9200000
  62.3259408  40.8239408  82.4250000  63.4999408  40.8599408  83.3800000
  81.1939408  34.9999408  84.4080000  80.3499408  35.2639408  84.7730000
  81.2559408  34.0639408  84.5980000  88.7599408  58.1839408  63.0480000
  88.8759408  57.2849408  63.3560000  89.4779408  58.3219408  62.4310000
  62.6489408  37.0719408  83.3300000  62.9159408  37.8839408  82.8980000
  62.1039408  36.6239408  82.6820000  82.4329408  54.4709408  60.8190000
  81.6569408  54.3989408  61.3750000  82.5059408  53.6149408  60.3970000
  87.0089408  37.7539408  80.9100000  87.1639408  37.5669408  81.8360000
  86.1749408  37.3249408  80.7160000  79.5569408  49.2589408  64.7920000
  79.8279408  48.5009408  64.2750000  79.5719408  49.9889408  64.1730000
  86.9399408  40.5709408  65.5480000  87.2969408  41.4359408  65.7460000
  87.5429408  40.2049408  64.9000000  82.1869408  37.3489408  83.2340000
  82.6329408  37.2299408  82.3960000  81.9849408  36.4599408  83.5270000
  83.0549408  56.8219408  75.9560000  82.1179408  56.8199408  76.1500000
  83.1779408  56.0819408  75.3610000  86.0829408  44.9759408  82.9120000
  86.8299408  44.5689408  82.4730000  86.1679408  44.7089408  83.8270000
  61.7139408  34.7479408  64.2270000  61.3929408  34.3309408  63.4270000
  61.0859408  34.4889408  64.9010000  86.7119408  58.8939408  61.2240000
  87.5319408  58.5429408  61.5710000  86.3319408  59.3829408  61.9540000
  84.2559408  53.5429408  78.3680000  84.2759408  52.7569408  78.9150000
  85.1489408  53.6239408  78.0320000  84.1759408  48.5089408  61.7660000
  84.5339408  49.3739408  61.5650000  84.8279408  48.1069408  62.3410000
  85.2449408  45.1359408  79.2390000  84.6809408  45.3399408  79.9860000
  85.0279408  45.8009408  78.5860000  87.8889408  32.9389408  60.7890000
  87.1389408  32.3659408  60.9500000  87.5709408  33.8159408  61.0000000
  77.5889408  35.9449408  81.8650000  77.9269408  35.0509408  81.9150000
  78.2399408  36.4199408  81.3480000  80.0679408  36.6019408  80.6770000
  80.4109408  35.7399408  80.4420000  80.8469408  37.1369408  80.8290000
  89.4139408  33.1659408  76.0720000  89.2369408  32.3849408  76.5970000
  88.9069408  33.8589408  76.4960000  77.8799408  37.6249408  84.1220000
  77.7579408  36.6759408  84.0920000  77.0159408  37.9709408  84.3480000
  84.0009408  34.7069408  65.0710000  83.8849408  34.5229408  64.1390000
  84.2479408  33.8649408  65.4530000  88.6979408  34.9809408  83.9730000
  89.2289408  35.6649408  84.3820000  89.2709408  34.2149408  83.9480000
  69.8899408  41.8059408  77.1790000  70.2009408  41.2239408  77.8720000
  70.1229408  41.3559408  76.3660000  62.2539408  45.9619408  84.7120000
  61.4929408  45.4689408  84.4070000  63.0069408  45.4519408  84.4130000
  80.0029408  39.2039408  83.4090000  80.8009408  38.6759408  83.4560000
  79.3039408  38.6049408  83.6730000  83.6059408  42.7209408  74.1930000
  83.3069408  42.6279408  73.2890000  83.8659408  43.6389408  74.2670000
  83.0969408  37.0939408  80.7320000  83.5719408  37.7899408  80.2780000
  83.5829408  36.2959408  80.5220000  81.2829408  34.2129408  70.2370000
  82.1709408  34.4309408  70.5200000  80.9569408  35.0169408  69.8310000
  65.2779408  41.5559408  67.5480000  64.8449408  40.9229408  68.1220000
  65.5749408  42.2489408  68.1370000  66.0519408  36.0389408  72.9900000
  66.7619408  35.9259408  72.3580000  65.9799408  36.9859408  73.1040000
  86.9689408  56.1229408  82.1750000  87.8909408  56.2139408  82.4190000
  86.8059408  56.8519408  81.5770000  60.5089408  39.7659408  73.8980000
  59.8269408  39.7809408  74.5700000  60.2249408  39.0889408  73.2830000
  82.0069408  43.9469408  76.1180000  82.6479408  43.3789408  75.6900000
  82.4899408  44.3509408  76.8390000  63.1369408  45.9089408  77.4420000
  63.2879408  46.7359408  77.8990000  62.3239408  46.0479408  76.9560000
  84.1139408  33.7159408  81.1230000  84.5879408  34.4759408  80.7840000
  84.5419408  33.5189408  81.9560000  73.7419408  36.4529408  75.6390000
  74.2449408  36.8479408  74.9270000  73.4279408  37.1979408  76.1520000
  63.9139408  44.3159408  80.0960000  63.3239408  45.0459408  80.2810000
  63.8699408  44.2069408  79.1460000  79.3529408  39.0949408  79.9650000
  78.9699408  39.8979408  80.3180000  79.1119408  38.4159408  80.5960000
  77.2159408  32.2419408  74.2630000  77.4569408  31.6839408  75.0030000
  76.9959408  33.0849408  74.6600000  66.1759408  33.6459408  83.8610000
  67.0319408  33.4339408  84.2340000  65.6269408  33.8449408  84.6190000
  60.6509408  44.1239408  83.5250000  59.7119408  43.9479408  83.5810000
  60.9809408  43.4709408  82.9080000  62.0539408  42.5049408  81.6720000
  62.7779408  43.0489408  81.3630000  61.3189408  42.7389408  81.1060000
  87.4739408  38.2959408  67.3770000  87.0789408  39.0559408  66.9490000
  87.4529408  37.6089408  66.7110000  64.6389408  38.2059408  60.3610000
  64.5499408  39.1419408  60.5400000  65.5799408  38.0399408  60.4160000
  63.5789408  35.2939408  74.7230000  64.2869408  35.7469408  74.2640000
  62.8469408  35.9109408  74.7040000  74.3679408  38.5949408  80.4910000
  74.4269408  39.5469408  80.5680000  74.3979408  38.4279408  79.5490000
  62.4339408  59.4479408  81.3220000  61.7669408  58.7629408  81.3040000
  62.1439408  60.0829408  80.6670000  79.6399408  47.0629408  81.6660000
  80.2749408  47.2579408  82.3550000  79.4069408  47.9179408  81.3040000
  87.1349408  42.3819408  81.4320000  86.3539408  41.8949408  81.6950000
  87.7049408  42.3559408  82.2000000  61.7099408  34.5589408  77.3620000
  61.2679408  34.1129408  76.6390000  61.0809408  35.2169408  77.6580000
  63.7859408  33.1389408  65.5410000  64.7399408  33.2159408  65.5740000
  63.5029408  33.8839408  65.0110000  82.3099408  40.3559408  81.7640000
  81.7209408  41.1059408  81.6740000  81.7629408  39.6659408  82.1410000
  88.6129408  50.5529408  80.3810000  89.2029408  50.8629408  81.0670000
  88.5069408  51.3039408  79.7970000  78.5159408  55.7009408  60.7170000
  78.6129408  56.6029408  61.0230000  79.1969408  55.5999408  60.0510000
  84.3199408  45.3179408  73.4330000  83.7379408  46.0469408  73.2200000
  84.8819408  45.6559408  74.1310000  82.5469408  45.5769408  64.2880000
  81.8889408  46.0879408  63.8160000  82.4899408  44.7009408  63.9070000
  79.5539408  30.0589408  77.2370000  79.8519408  30.3489408  76.3750000
  78.6799408  30.4369408  77.3290000  84.5779408  56.1839408  79.7680000
  85.3119408  55.7339408  79.3490000  83.8019408  55.8429408  79.3220000
  81.9709408  59.7309408  64.2900000  81.4919408  60.5529408  64.3860000
  82.2929408  59.5359408  65.1700000  79.7779408  53.9979408  73.5600000
  80.2779408  54.1409408  72.7560000  80.3799408  53.5269408  74.1360000
  76.2369408  32.5929408  67.0360000  76.4979408  31.7169408  66.7530000
  77.0569408  33.0199408  67.2820000  77.8549408  33.6489408  68.8230000
  78.0219408  34.5789408  68.9790000  77.6949408  33.2839408  69.6930000
  80.3289408  54.1079408  62.8240000  79.6049408  54.5969408  62.4350000
  80.2499408  54.2699408  63.7640000  81.6989408  30.0119408  79.4060000
  82.3109408  29.7979408  78.7010000  80.9559408  30.4209408  78.9620000
  87.1489408  51.4149408  68.1260000  87.0169408  51.9989408  68.8730000
  86.3659408  50.8649408  68.1090000  81.1139408  32.1109408  64.7390000
  81.1109408  32.6599408  65.5240000  81.5609408  32.6399408  64.0780000
  82.0079408  40.1399408  76.2200000  81.9829408  40.3189408  75.2790000
  82.8879408  39.7949408  76.3750000  76.6089408  48.0909408  73.3550000
  76.7289408  47.5009408  72.6110000  77.4469408  48.5439408  73.4390000
  87.8639408  47.4319408  69.3610000  87.7469408  47.2979408  70.3010000
  88.3079408  48.2779408  69.2930000  61.0329408  55.6039408  73.9710000
  60.2089408  55.2399408  74.2930000  61.2309408  55.0919408  73.1870000
  61.9339408  59.6879408  78.6420000  62.2469408  58.7839408  78.6550000
  61.5109408  59.7829408  77.7880000  61.1559408  48.4609408  80.0400000
  60.2709408  48.7809408  79.8660000  61.0349408  47.5459408  80.2950000
  62.0799408  58.3339408  63.5080000  61.6479408  58.7749408  62.7770000
  62.4669408  59.0439408  64.0210000  77.4589408  49.6149408  66.9330000
  76.5709408  49.2699408  67.0270000  77.7209408  49.3639408  66.0470000
  86.6749408  47.5639408  73.5590000  86.2789408  47.7839408  74.4030000
  86.8119408  46.6169408  73.5990000  79.9319408  53.5469408  65.4520000
  79.4589408  52.7149408  65.4690000  80.8459408  53.3059408  65.6030000
  83.0439408  51.6259408  73.4910000  82.5689408  51.6099408  72.6600000
  83.9519408  51.4399408  73.2520000  81.5259408  57.0239408  63.9340000
  81.8329408  56.7029408  63.0860000  81.8009408  57.9409408  63.9570000
  82.5659408  53.1829408  66.2490000  82.5139408  52.3989408  66.7960000
  83.4839408  53.2299408  65.9820000  62.7359408  53.2419408  81.7040000
  62.8889408  53.6109408  80.8350000  62.5469408  53.9999408  82.2570000
  85.2289408  33.2469408  72.4100000  84.8559408  32.6399408  71.7710000
  86.0849408  33.4789408  72.0500000  63.0529408  56.7679408  75.5720000
  62.4119408  56.2939408  75.0430000  63.1159408  57.6289408  75.1590000
  84.1119408  51.8259408  63.7350000  84.7569408  52.4489408  64.0690000
  84.4369408  51.5849408  62.8680000  85.3229408  46.5199408  63.7300000
  85.4299408  45.8639408  63.0410000  84.4889408  46.2979408  64.1450000
  85.6729408  50.8899408  83.2500000  85.9379408  51.6929408  82.8020000
  85.0279408  50.4909408  82.6670000  88.0719408  45.0429408  74.1250000
  88.3279408  44.1539408  73.8810000  88.7059408  45.6059408  73.6790000
  81.4969408  47.6769408  68.9910000  80.6869408  47.9649408  69.4120000
  81.2069408  47.1699408  68.2330000  81.3089408  51.2979408  70.9070000
  80.3719408  51.3809408  71.0840000  81.3559408  50.9219408  70.0280000
  82.7679408  49.3119408  77.3790000  82.3009408  50.0629408  77.0110000
  83.4259408  49.6989408  77.9570000  79.7129408  51.5399408  67.5910000
  79.1179408  50.8719408  67.2500000  80.5109408  51.0599408  67.8100000
  83.7039408  47.7479408  70.5130000  84.1529408  46.9339408  70.2860000
  82.9529408  47.7799408  69.9200000  87.4709408  55.8359408  66.5070000
  87.7579408  54.9329408  66.6370000  87.3959408  55.9299408  65.5570000
  87.1539408  55.2229408  78.8610000  87.2309408  54.5909408  78.1470000
  87.9429408  55.7599408  78.7930000  88.9979408  45.2499408  77.3840000
  88.6679408  45.0439408  78.2580000  88.5579408  44.6249408  76.8080000
  77.0249408  52.7099408  77.6690000  76.8809408  52.0149408  77.0260000
  76.7759408  53.5139408  77.2140000  85.5159408  32.1409408  62.2740000
  84.6969408  32.6339408  62.2290000  85.2789408  31.3189408  62.7030000
  87.8379408  46.4779408  64.9610000  87.1649408  46.4449408  64.2810000
  88.2269408  47.3489408  64.8720000  78.1619408  41.4479408  78.1310000
  78.1129408  41.6889408  79.0560000  79.0279408  41.7449408  77.8520000
  71.7949408  34.1809408  75.4660000  71.0579408  34.3869408  76.0420000
  72.4969408  34.7619408  75.7580000  84.6279408  59.7129408  63.2650000
  83.6809408  59.5999408  63.3410000  84.9819408  59.3039408  64.0550000
  84.1549408  58.4689408  68.6710000  84.9869408  57.9959408  68.6860000
  83.5239408  57.8559408  69.0480000  87.6299408  58.3429408  67.5860000
  87.5669408  57.3909408  67.5050000  87.5549408  58.5079408  68.5260000
  86.7179408  53.2369408  77.1170000  87.0469408  53.5299408  76.2670000
  86.4409408  52.3329408  76.9690000  88.6429408  53.4169408  62.1320000
  89.5469408  53.7219408  62.2000000  88.2299408  54.0239408  61.5180000
  78.1019408  59.3339408  73.8490000  78.8249408  59.9569408  73.9170000
  78.5209408  58.5029408  73.6270000  60.8829408  45.8929408  80.9960000
  61.0199408  45.6469408  81.9110000  60.0429408  45.4959408  80.7640000
  89.7119408  57.0349408  78.1520000  89.5509408  57.4989408  77.3300000
  89.2639408  57.5589408  78.8150000  67.1339408  53.6299408  77.5170000
  66.9599408  54.4419408  77.0430000  67.4829408  53.0339408  76.8540000
  64.8129408  50.6049408  80.3340000  64.8989408  51.5329408  80.5520000
  64.8869408  50.1529408  81.1740000  85.3029408  56.0099408  71.7730000
  85.0519408  55.5969408  70.9470000  84.6769408  56.7259408  71.8830000
  75.4609408  53.4619408  63.0360000  75.9439408  53.2799408  62.2300000
  75.3659408  52.6069408  63.4560000  73.5109408  57.9189408  75.3630000
  74.4469408  57.8499408  75.5500000  73.2639408  57.0499408  75.0470000
  85.1669408  55.1589408  61.8110000  84.2559408  54.8679408  61.8270000
  85.3879408  55.2049408  60.8810000  81.1539408  57.1659408  66.5480000
  81.4189408  56.9389408  65.6570000  81.5359408  58.0299408  66.7000000
  76.0469408  34.5639408  75.7710000  76.0809408  34.5099408  76.7260000
  75.4529408  35.2939408  75.5940000  62.8799408  57.4629408  72.2670000
  62.0239408  57.0379408  72.2150000  63.2679408  57.3299408  71.4030000
  88.6919408  49.2009408  63.8620000  89.5599408  48.8229408  63.7170000
  88.1619408  48.8679408  63.1380000  87.3199408  48.8899408  61.5420000
  87.8129408  49.1749408  60.7720000  87.3469408  47.9339408  61.5040000
  60.1709408  55.8719408  63.6420000  60.6029408  55.3299408  62.9810000
  60.8439408  56.4929408  63.9200000  81.9069408  50.2649408  68.2860000
  81.7919408  49.3209408  68.3890000  82.4119408  50.3589408  67.4790000
  80.8209408  55.7819408  71.5460000  80.6039408  55.9449408  70.6280000
  80.7959408  56.6459408  71.9560000  87.3569408  31.1799408  66.2670000
  87.6309408  31.6629408  65.4870000  88.0139408  30.4909408  66.3660000
  78.4929408  50.8929408  71.3400000  78.2899408  50.2629408  70.6490000
  77.8709408  51.6069408  71.2050000  87.5929408  58.9229408  70.4380000
  87.4519408  59.3709408  71.2720000  88.5019408  58.6269408  70.4740000
  69.8979408  58.3239408  77.5680000  70.5479408  57.6229408  77.5210000
  69.0609408  57.8869408  77.4100000  60.6229408  55.0849408  79.8260000
  61.5509408  54.8679408  79.9130000  60.5909408  55.7159408  79.1080000
  89.5049408  39.6089408  63.9390000  89.2369408  39.4409408  63.0360000
  90.3389408  39.1489408  64.0320000  84.9399408  58.5519408  72.8940000
  85.6679408  58.0659408  73.2810000  85.3499408  59.3119408  72.4820000
  86.2609408  50.5759408  76.5330000  85.9599408  49.7359408  76.1870000
  87.1519408  50.4039408  76.8380000  60.9209408  59.9589408  69.9480000
  61.4189408  59.3979408  69.3520000  60.0779408  60.0829408  69.5120000
  60.1289408  30.2789408  66.1440000  60.1339408  30.2069408  65.1890000
  60.6739408  29.5509408  66.4420000  80.1059408  56.3139408  68.9570000
  80.3829408  56.3689408  68.0430000  79.8789408  57.2129408  69.1940000
  77.8029408  31.4979408  62.0150000  77.8179408  31.3079408  62.9530000
  77.9959408  30.6579408  61.5970000  81.2849408  51.4409408  63.2030000
  82.1909408  51.6019408  63.4660000  80.9289408  52.3109408  63.0260000
  84.8339408  48.1349408  75.5300000  85.1179408  47.2749408  75.8380000
  84.2629408  48.4619408  76.2250000  85.9399408  53.0769408  70.1740000
  85.0409408  52.8989408  70.4490000  85.8779408  53.8789408  69.6550000
  60.5509408  53.0329408  68.3860000  60.1859408  53.4379408  67.6000000
  59.8569408  53.1109408  69.0410000  79.0939408  55.2559408  77.6310000
  78.8449408  55.5209408  78.5160000  78.5189408  54.5169408  77.4310000
  84.6889408  56.4959408  83.9890000  85.4609408  56.4079408  83.4300000
  84.0209408  55.9579408  83.5630000  79.7889408  57.3129408  83.2930000
  80.5389408  57.1429408  82.7230000  79.6029408  58.2449408  83.1720000
  86.0789408  58.6559408  65.3270000  86.5179408  58.9459408  66.1270000
  86.5309408  57.8469408  65.0860000  81.9989408  57.5469408  61.0180000
  82.9239408  57.6119408  60.7810000  81.7279408  56.6889408  60.6910000
  77.6129408  50.7449408  63.2240000  77.4149408  49.8939408  62.8320000
  77.7729408  51.3209408  62.4770000  88.7029408  53.2359408  80.3090000
  89.5569408  53.6369408  80.1500000  88.0819408  53.8059408  79.8540000
  79.1839408  52.3919408  79.3730000  78.8759408  52.0519408  80.2130000
  78.3959408  52.4469408  78.8330000  82.4529408  52.8319408  84.3870000
  83.2899408  53.2969408  84.4070000  81.9209408  53.3219408  83.7600000
  89.3329408  50.1069408  69.6110000  90.1389408  50.5079408  69.2850000
  88.7129408  50.1949408  68.8870000  89.7389408  31.2499408  82.7270000
  89.9719408  30.5979408  82.0660000  88.7969408  31.1349408  82.8560000
  86.4519408  48.2429408  83.9800000  86.5979408  49.0739408  83.5290000
  85.5169408  48.0689408  83.8690000  62.8429408  55.7119408  83.1490000
  63.7689408  55.4969408  83.0340000  62.8479408  56.5679408  83.5780000
  88.0669408  45.0089408  80.1910000  88.0739408  45.9439408  79.9830000
  87.1889408  44.8459408  80.5340000  89.9059408  58.0329408  81.8660000
  89.3759408  58.3819408  82.5830000  90.0419408  57.1129408  82.0930000
  80.8229408  50.4389408  84.5460000  81.4419408  51.1659408  84.6110000
  80.8099408  50.2179408  83.6140000  63.7959408  32.6399408  61.5360000
  63.1589408  33.0979408  60.9870000  63.2689408  32.0539408  62.0780000
  84.2699408  59.2149408  84.6630000  84.2869408  58.9489408  85.5820000
  84.4699408  58.4149408  84.1780000  80.7379408  33.9019408  80.2470000
  80.8629408  33.9519408  79.3000000  81.6089408  34.0529408  80.6130000
  89.0199408  58.8129408  84.3330000  89.8619408  59.1639408  84.6250000
  88.8459408  58.0819408  84.9260000  86.1579408  56.4039408  63.9090000
  85.6669408  57.2129408  64.0520000  85.8099408  56.0549408  63.0890000
  77.0399408  58.4119408  84.8180000  77.5809408  58.5059408  85.6020000
  77.1749408  57.5059408  84.5410000  83.6199408  54.9529408  82.0760000
  82.8519408  54.5989408  81.6270000  84.1499408  55.3379408  81.3780000
  81.2529408  53.5169408  80.7880000  80.5179408  53.0819408  80.3570000
  80.8559408  53.9929408  81.5170000  63.1729408  59.6979408  83.8650000
  62.8949408  59.4999408  82.9710000  63.6089408  60.5479408  83.7990000
  84.4219408  39.4159408  80.1160000  85.2529408  39.6309408  80.5400000
  83.7539408  39.7569408  80.7110000  62.7039408  51.1609408  60.5350000
  61.8629408  51.6189408  60.5440000  62.8899408  51.0209408  59.6060000
  78.5739408  56.5729408  79.9790000  79.3969408  57.0059408  80.2050000
  77.9349408  56.9379408  80.5900000  83.9579408  31.6669408  83.3620000
  83.0839408  31.9459408  83.6370000  84.0009408  30.7409408  83.6010000
  83.5929408  50.4459408  66.1030000  84.4549408  50.0469408  66.2220000
  83.6239408  50.8299408  65.2270000  81.0189408  51.9559408  77.3460000
  80.6409408  52.0609408  78.2200000  81.4569408  52.7889408  77.1720000
  89.3579408  36.4659408  81.7420000  88.9689408  36.1709408  80.9190000
  89.0259408  35.8529408  82.3980000  65.0389408  50.2599408  83.3180000
  65.4329408  50.8059408  83.9980000  64.2329408  49.9279408  83.7140000
  82.3159408  30.6029408  60.0200000  82.8489408  30.3259408  60.7650000
  82.9519408  30.8169408  59.3370000  62.0639408  32.4419408  79.6400000
  62.0359408  33.1009408  78.9460000  61.3919408  31.8059408  79.3950000
  76.0279408  59.2599408  78.5900000  75.0909408  59.1729408  78.4130000
  76.1359408  58.9249408  79.4800000  80.3859408  54.2079408  83.2040000
  80.0829408  55.1069408  83.3300000  79.8389408  53.6859408  83.7910000
  60.8689408  36.2169408  60.9050000  61.1979408  36.6709408  60.1290000
  61.6129408  36.1979408  61.5060000  70.0009408  56.2329408  81.9690000
  70.8279408  55.7619408  82.0740000  70.2609408  57.1449408  81.8330000
  73.1139408  59.2469408  78.1040000  73.4209408  58.6579408  77.4150000
  72.3449408  59.6749408  77.7280000  64.1209408  73.6749408  13.7610000
  64.0209408  74.4239408  14.3480000  64.6659408  73.0579408  14.2490000
  79.4019408  77.0039408   3.4620000  79.3069408  76.1259408   3.8320000
  78.6369408  77.1089408   2.8970000  66.9639408  87.2739408   4.1330000
  66.2589408  86.7169408   4.4630000  66.9889408  88.0129408   4.7410000
  81.1249408  61.1489408  21.7350000  80.9649408  60.2999408  21.3230000
  81.6349408  61.6379408  21.0890000  71.8849408  71.9679408  12.0810000
  71.2899408  71.2449408  12.2800000  72.7569408  71.5759408  12.1090000
  65.8789408  66.9689408   8.7010000  65.4139408  66.1719408   8.4480000
  65.9029408  67.4959408   7.9020000  75.1049408  77.8279408  15.6050000
  74.2939408  77.6459408  15.1300000  75.7899408  77.7719408  14.9380000
  60.6359408  74.0729408   8.5360000  59.8129408  74.3929408   8.1640000
  60.9089408  73.3719408   7.9450000  78.8559408  78.6129408   9.2840000
  78.4689408  78.1719408  10.0410000  78.1489408  79.1559408   8.9360000
  69.0639408  68.6819408  17.8260000  68.4579408  68.2489408  18.4280000
  69.3939408  67.9759408  17.2700000  71.2259408  71.3479408   5.7040000
  70.6419408  71.7979408   6.3140000  71.6789408  70.6969408   6.2400000
  77.4669408  75.2269408  17.9080000  77.9479408  75.1439408  18.7320000
  78.1319408  75.1079408  17.2300000  82.0799408  69.5039408   6.3360000
  81.9909408  69.7379408   5.4120000  82.7389408  70.1109408   6.6740000
  65.6149408  73.6859408   8.9500000  65.7649408  73.7169408   9.8950000
  64.7539408  74.0859408   8.8300000  89.3079408  78.9599408  15.2020000
  89.6479408  79.5329408  15.8900000  89.8979408  79.0979408  14.4610000
  62.5329408  67.1629408  28.8470000  63.2739408  67.5749408  29.2930000
  62.8629408  66.9599408  27.9720000  72.9309408  85.5519408  14.1980000
  73.8639408  85.3599408  14.1090000  72.5239408  85.1209408  13.4470000
  88.0369408  65.5629408   5.5490000  87.0969408  65.6829408   5.4130000
  88.2159408  64.6789408   5.2300000  78.3629408  81.3589408   0.6810000
  77.7089408  82.0489408   0.5670000  78.2789408  80.8169408  -0.1030000
  70.6849408  75.9839408   6.6650000  71.1339408  76.8249408   6.7490000
  69.8769408  76.0929408   7.1670000  88.7999408  69.9389408  15.7730000
  87.8609408  69.9999408  15.5990000  88.8569408  69.5959408  16.6650000
  62.3889408  80.7699408   3.8460000  63.1819408  81.3059408   3.8470000
  62.6729408  79.9199408   4.1820000  77.9779408  74.4559408  10.6650000
  77.2519408  74.3639408  10.0480000  77.7039408  73.9559408  11.4340000
  73.5299408  74.6779408   0.5350000  72.9009408  73.9769408   0.7060000
  73.0779408  75.2629408  -0.0730000  76.9329408  82.0279408  13.3670000
  77.2779408  82.9039408  13.1980000  77.6629408  81.4399408  13.1730000
  71.7599408  83.1179408   8.5430000  71.6899408  83.8819408   7.9720000
  72.0759408  82.4179408   7.9710000  74.5309408  86.0489408   1.8910000
  75.1549408  86.0429408   1.1650000  74.9719408  85.5639408   2.5890000
  61.5889408  67.8679408   5.1380000  61.9129408  67.0799408   4.7030000
  62.3749408  68.2939408   5.4810000  64.3779408  61.6949408  16.6380000
  63.4469408  61.8319408  16.4640000  64.7679408  61.5709408  15.7730000
  71.0189408  62.1809408  18.1460000  70.7569408  63.1019408  18.1390000
  71.6919408  62.1279408  18.8240000  75.1549408  60.6799408   8.8720000
  74.7649408  61.4279408   8.4200000  75.0899408  59.9599408   8.2450000
  75.4189408  74.0349408  13.0950000  74.8099408  73.9809408  13.8320000
  74.8679408  74.2559408  12.3440000  66.8749408  86.9259408   9.7580000
  67.0919408  87.8089408  10.0560000  67.0169408  86.9499408   8.8120000
  88.5349408  75.5709408   7.6430000  88.4489408  76.1489408   6.8850000
  88.1879408  76.0809408   8.3750000  68.3539408  66.3839408   3.5020000
  69.0179408  66.9059408   3.0520000  67.9879408  66.9769408   4.1590000
  84.3849408  69.4109408  17.3650000  84.7209408  68.5179408  17.2950000
  84.2909408  69.5589408  18.3060000  67.7939408  73.7699408   7.0920000
  67.1589408  73.5089408   7.7590000  68.3649408  73.0079408   6.9930000
  69.0859408  62.8069408  12.3010000  69.2659408  63.2629408  11.4790000
  69.7729408  63.1059408  12.8980000  75.8509408  73.9929408   9.0110000
  75.1649408  74.5659408   8.6690000  75.4019408  73.1709408   9.2080000
  67.6489408  77.3009408  12.5020000  67.1329408  77.8939408  13.0490000
  67.6139408  76.4609408  12.9600000  82.4549408  63.6049408   2.6640000
  81.6819408  63.5749408   2.1000000  82.7979408  64.4919408   2.5530000
  81.2289408  80.5009408  14.9470000  80.8759408  81.0379408  15.6570000
  81.9479408  81.0209408  14.5870000  71.1919408  86.2969408   1.5580000
  71.2509408  87.2469408   1.6600000  71.6389408  85.9449408   2.3270000
  64.6869408  63.6109408  12.3470000  63.8339408  63.9499408  12.0730000
  65.2309408  64.3909408  12.4540000  71.3659408  80.8169408  12.9800000
  71.3449408  81.5859408  12.4090000  72.2869408  80.5579408  12.9990000
  74.5329408  79.5259408   7.8070000  74.0209408  78.9609408   8.3850000
  73.9069408  80.1799408   7.4950000  64.9169408  74.0799408   6.0540000
  65.2429408  73.2809408   6.4690000  64.3959408  74.5079408   6.7330000
  71.9419408  64.9309408  18.4310000  72.8109408  65.3169408  18.3240000
  71.7659408  64.9919408  19.3700000  62.9999408  83.7209408   4.9930000
  62.5599408  83.1309408   5.6050000  63.7909408  83.2499408   4.7310000
  69.3909408  65.9979408  13.5600000  68.4679408  65.8209408  13.7410000
  69.5449408  65.6099408  12.6990000  66.4589408  79.0469408  14.2110000
  65.7969408  78.9559408  14.8960000  67.0899408  79.6709408  14.5690000
  72.7269408  64.7419408  13.0350000  73.5559408  64.2759408  12.9230000
  72.3699408  64.4009408  13.8560000  70.9189408  75.5149408  11.9010000
  70.0709408  75.1079408  11.7250000  70.7289408  76.4519408  11.9560000
  71.2779408  68.6519408   9.3500000  71.3409408  67.9429408   9.9910000
  70.6729408  69.2789408   9.7440000  67.3769408  88.8119408   1.6800000
  66.6809408  88.2869408   1.2850000  67.2869408  88.6599408   2.6210000
  75.6899408  78.6069408   4.5490000  75.8669408  78.6029408   3.6090000
  76.2479408  77.9129408   4.9010000  66.0069408  60.8799408   4.4630000
  66.8559408  60.4709408   4.2940000  66.1609408  61.8149408   4.3310000
  69.4119408  68.7209408   6.5640000  69.9009408  68.4549408   7.3430000
  70.0189408  69.2819408   6.0810000  70.9679408  78.3959408  15.9660000
  71.6029408  77.8829408  15.4660000  70.1389408  77.9329408  15.8490000
  69.0729408  70.0809408   9.9790000  69.3089408  70.3209408  10.8750000
  68.1399408  69.8699408  10.0250000  68.6629408  83.0849408   5.7270000
  69.1639408  82.7029408   6.4480000  69.3049408  83.2099408   5.0280000
  72.1909408  63.0269408   6.6490000  72.5829408  63.5069408   7.3790000
  72.8259408  62.3399408   6.4440000  62.7639408  70.3209408  15.9390000
  62.1979408  70.7929408  15.3280000  62.1579408  69.8679408  16.5260000
  63.7929408  65.9289408  18.5460000  64.5359408  65.3939408  18.2680000
  63.0419408  65.5539408  18.0850000  67.2649408  65.4869408  10.7700000
  66.6499408  66.0649408  10.3180000  67.6409408  64.9459408  10.0760000
  64.4899408  64.3149408   8.6110000  63.8189408  63.6769408   8.8510000
  64.7519408  64.0669408   7.7250000  78.2059408  71.1969408  11.0920000
  78.7899408  71.1579408  10.3350000  77.3289408  71.0939408  10.7250000
  72.6159408  62.7419408   2.6460000  72.2479408  63.1119408   1.8440000
  73.2749408  63.3789408   2.9240000  73.6049408  69.6929408   3.1680000
  74.0819408  68.9459408   3.5280000  74.2209408  70.4239408   3.2310000
  70.6809408  71.2849408   0.4750000  70.9629408  71.9649408  -0.1370000
  70.5939408  71.7389408   1.3140000  66.1979408  88.7859408   7.3920000
  65.6229408  89.3219408   7.9370000  66.9389408  89.3569408   7.1890000
  75.6389408  66.6119408   8.9870000  75.6199408  66.6119408   9.9440000
  76.5409408  66.8459408   8.7660000  76.1629408  80.3279408   9.8410000
  75.8969408  80.1039408   8.9500000  75.7949408  79.6309408  10.3840000
  78.8369408  79.6889408  13.6890000  79.6529408  79.8079408  14.1740000
  79.0429408  79.9709408  12.7980000  67.3569408  74.9479408  14.1060000
  66.7409408  74.6609408  14.7800000  67.7119408  74.1349408  13.7450000
  82.1589408  71.9809408   8.6940000  82.2029408  72.9319408   8.6020000
  82.8179408  71.6489408   8.0840000  61.5759408  61.8369408  12.3790000
  61.6699408  61.3979408  11.5340000  61.7809408  62.7539408  12.1980000
  69.7979408  73.5629408  20.7020000  69.9119408  72.6129408  20.6900000
  70.2249408  73.8659408  19.9000000  72.6309408  73.1459408  14.3340000
  72.2629408  73.3379408  13.4710000  72.9819408  72.2589408  14.2530000
  70.1429408  68.5439408   2.9460000  70.7999408  68.6049408   2.2530000
  70.5939408  68.8529408   3.7320000  62.9149408  76.4549408  14.3630000
  63.5279408  77.1049408  14.7050000  62.2449408  76.3749408  15.0420000
  69.9729408  61.6209408   9.1660000  70.8859408  61.7839408   8.9290000
  70.0159408  61.2549408  10.0490000  72.5159408  69.3919408   7.0440000
  72.9239408  68.9559408   6.2950000  72.6179408  68.7729408   7.7670000
  80.6819408  74.5549408  10.8580000  80.4699408  74.9719408  11.6930000
  79.8309408  74.3559408  10.4670000  65.0659408  72.1979408  18.1450000
  65.8319408  71.7159408  17.8330000  64.6889408  72.5859408  17.3550000
  77.3339408  61.3149408  17.3720000  77.1459408  62.1649408  17.7700000
  76.5919408  60.7639408  17.6200000  64.3569408  84.6489408  13.1330000
  65.1819408  85.0809408  12.9100000  63.8739408  85.2999408  13.6410000
  66.0859408  74.8579408  11.4430000  65.4669408  75.3769408  10.9300000
  65.9959408  75.1919408  12.3360000  73.4409408  76.1729408   8.5040000
  73.3789408  75.9409408   7.5780000  72.7799408  76.8539408   8.6260000
  68.5019408  64.1379408   8.6120000  68.8629408  64.4539408   7.7840000
  68.9809408  63.3279408   8.7890000  65.8979408  86.1729408  15.7840000
  64.9769408  86.4009408  15.6590000  66.2559408  86.1269408  14.8980000
  64.1719408  68.0399408   6.5580000  63.5999408  68.3309408   7.2680000
  64.3229408  68.8259408   6.0330000  80.9309408  68.1219408  17.8530000
  80.4899408  68.4399408  18.6410000  81.2959408  68.9089408  17.4480000
  63.5469408  89.1949408  14.3880000  63.4529408  88.7309408  13.5560000
  64.0779408  89.9629408  14.1760000  67.6459408  75.5889408   0.5610000
  68.1379408  74.9059408   1.0160000  68.1499408  76.3889408   0.7110000
  69.7719408  62.8839408   5.6410000  70.6209408  62.7349408   6.0590000
  69.7999408  62.3549408   4.8440000  69.0259408  76.3989408  15.6100000
  68.7289408  76.0099408  16.4320000  68.4029408  76.0809408  14.9560000
  72.9919408  66.0789408  20.9050000  73.2669408  66.9929408  20.8340000
  73.4549408  65.7489408  21.6750000  79.7759408  77.0209408   6.7930000
  79.6259408  77.7959408   6.2530000  79.1299408  77.0889408   7.4960000
  84.9269408  75.3199408   9.5870000  85.3159408  74.5869408  10.0650000
  85.3279408  75.2809408   8.7190000  65.7419408  71.5499408  12.2860000
  65.5099408  71.7689408  13.1890000  66.5849408  71.9799408  12.1450000
  89.0709408  62.3679408  13.5800000  89.1899408  62.7229408  14.4610000
  89.9599408  62.2269408  13.2550000  75.3469408  67.8619408  13.5700000
  75.5059408  67.1419408  12.9600000  76.2199408  68.1279408  13.8590000
  73.9419408  87.7469408  11.2050000  73.6119408  87.6369408  12.0970000
  73.2129408  88.1429408  10.7270000  62.4759408  73.4329408  11.5170000
  62.9669408  73.3179408  12.3310000  62.3929408  74.3819408  11.4200000
  64.0809408  70.9719408  10.1910000  63.3579408  71.5829408  10.3280000
  64.6869408  71.1519408  10.9110000  62.4699408  62.2689408   9.4860000
  61.9209408  63.0069408   9.2190000  61.8819408  61.5139408   9.4670000
  63.0199408  76.0899408  11.5960000  62.9749408  76.1599408  12.5500000
  63.1089408  76.9939408  11.2930000  72.5739408  74.1909408  16.7410000
  72.6879408  73.7449408  15.9010000  73.3929408  74.6689408  16.8720000
  69.4949408  75.9309408   3.8740000  69.7659408  75.7989408   4.7830000
  69.9059408  76.7569408   3.6190000  68.0449408  78.2839408  17.2700000
  67.8129408  77.5769408  17.8720000  68.2419408  77.8409408  16.4450000
  68.0199408  61.0509408  14.0630000  68.1869408  61.8039408  13.4960000
  68.5849408  61.1939408  14.8240000  72.3299408  83.4389408   4.0320000
  71.5709408  82.9229408   3.7610000  73.0749408  83.0059408   3.6160000
  63.8559408  88.2669408   6.1100000  63.5329408  89.1219408   5.8250000
  64.7399408  88.4389408   6.4320000  62.1229408  82.1309408  17.8600000
  62.8419408  81.8089408  17.3180000  62.3069408  83.0629408  17.9750000
  78.9909408  68.3469408   5.9690000  79.9089408  68.3779408   6.2400000
  78.8449408  67.4349408   5.7200000  65.8029408  76.0779408   4.3120000
  66.5949408  75.6419408   3.9980000  65.6179408  75.6609408   5.1540000
  75.6349408  71.6509408   3.7230000  76.4549408  71.1739408   3.8460000
  75.4639408  72.0589408   4.5730000  66.7349408  70.4089408  16.9120000
  67.6709408  70.2119408  16.8740000  66.3309408  69.5979408  17.2210000
  68.8879408  80.4159408   1.5990000  68.2829408  79.7779408   1.9770000
  68.7719408  81.2019408   2.1330000  73.4439408  60.5639408   5.1250000
  74.2609408  60.5429408   5.6220000  73.7179408  60.5099408   4.2090000
  68.1309408  77.3219408   9.6840000  68.1119408  78.2399408   9.4110000
  67.9969408  77.3509408  10.6310000  71.8609408  68.8709408   0.8180000
  71.4729408  69.7019408   0.5460000  72.8049408  69.0259408   0.7920000
  74.0549408  80.7059408  19.8650000  73.1819408  80.5199408  20.2090000
  74.1139408  80.1809408  19.0660000  68.7819408  74.8269408  10.5120000
  67.8989408  74.6719408  10.8490000  68.7299408  75.6859408  10.0920000
  85.7759408  75.5769408  15.5950000  86.5949408  75.4519408  15.1160000
  85.8309408  74.9639408  16.3280000  74.7319408  65.0299408   6.7360000
  75.2879408  64.2539408   6.6670000  75.2679408  65.6689408   7.2060000
  74.8019408  75.4929408  16.8610000  74.9129408  76.3009408  16.3600000
  75.6729408  75.3059408  17.2110000  87.4529408  72.4809408  12.6510000
  86.9679408  71.6609408  12.7380000  88.3159408  72.2169408  12.3320000
  79.8039408  70.9529408   8.8190000  80.7069408  71.2619408   8.7410000
  79.2889408  71.5889408   8.3220000  73.6759408  72.0399408   8.3110000
  72.9579408  72.4469408   8.7970000  73.3909408  71.1369408   8.1740000
  64.4319408  59.9699408   9.1520000  64.9539408  60.3289408   9.8690000
  63.7079408  60.5879408   9.0490000  63.1979408  75.2869408   7.9950000
  62.5999408  75.4139408   7.2590000  62.7259408  74.7069408   8.5910000
  73.4919408  70.2479408  15.4210000  74.1179408  70.9619408  15.5410000
  74.0109408  69.5349408  15.0460000  88.8019408  66.7519408  15.1170000
  88.5949408  66.3399408  14.2790000  87.9779408  67.1509408  15.3980000
  62.1939408  62.4329408  15.0200000  61.9859408  62.0149408  14.1840000
  62.7589408  63.1699408  14.7850000  80.3539408  61.1919408  14.3940000
  81.2449408  61.0649408  14.0680000  80.3279408  62.1089408  14.6690000
  72.9529408  78.1909408   4.7110000  72.8259408  78.4779408   5.6150000
  73.8859408  78.3269408   4.5450000  71.2079408  73.2309408   9.6310000
  71.4929408  73.1859408  10.5430000  70.4689408  73.8389408   9.6400000
  65.2889408  76.5969408   1.2440000  66.1979408  76.4009408   1.4730000
  65.0949408  76.0109408   0.5130000  65.9609408  61.2959408  10.8390000
  66.7089408  61.8909408  10.8830000  65.2019408  61.8499408  11.0230000
  74.0369408  69.3019408  10.0320000  73.0859408  69.2279408   9.9500000
  74.3769408  68.5189408   9.5980000  77.9259408  73.8949408  14.1400000
  76.9729408  73.9149408  14.2200000  78.2449408  74.1439408  15.0080000
  77.9639408  64.7779408   0.3340000  77.0519408  65.0459408   0.4500000
  78.1979408  64.3589408   1.1630000  66.0819408  71.7559408   3.1260000
  65.2619408  72.2489408   3.0890000  66.7199408  72.3779408   3.4750000
  80.7849408  71.9599408  17.6010000  81.3309408  71.2469408  17.2700000
  80.9109408  72.6709408  16.9720000  76.0959408  70.7469408   9.5820000
  75.3069408  70.3579408   9.9590000  76.3329408  70.1619408   8.8630000
  71.8799408  71.9409408   3.1400000  71.5959408  71.9629408   4.0530000
  72.2839408  71.0799408   3.0340000  70.6029408  78.1769408  12.3180000
  69.6709408  78.0139408  12.4610000  70.6839408  79.1309408  12.3230000
  76.8019408  80.5669408  15.9690000  77.5409408  79.9729408  15.8380000
  76.7199408  81.0359408  15.1380000  66.3819408  63.8779408   6.2780000
  66.8239408  64.1609408   7.0780000  66.7769408  64.4079408   5.5850000
  80.9929408  76.8169408   1.4860000  81.3499408  77.6909408   1.3270000
  80.4049408  76.9299408   2.2320000  87.1529408  73.0869408  16.5300000
  87.5009408  72.5009408  17.2020000  86.4709408  72.5749408  16.0950000
  88.4819408  70.9349408   9.6410000  88.8959408  71.1749408  10.4700000
  88.9019408  71.4979408   8.9910000  74.8989408  86.5689408   8.8670000
  74.8359408  86.8249408   9.7880000  74.8469408  85.6129408   8.8800000
  66.4319408  69.2409408   9.6680000  65.6539408  69.7959408   9.6110000
  66.1929408  68.4429408   9.1960000  74.5639408  71.3319408  12.5050000
  75.3129408  71.9219408  12.4160000  74.8419408  70.5249408  12.0710000
  65.8949408  79.3489408  10.4970000  65.2319408  79.5939408  11.1420000
  65.4229408  78.8129408   9.8600000  70.5329408  64.8369408  11.0850000
  70.4469408  65.5079408  10.4070000  71.3799408  65.0149408  11.4930000
  68.3729408  83.4639408  13.1860000  69.1639408  83.9339408  12.9220000
  67.6539408  83.9979408  12.8490000  68.0019408  73.8009408   4.2870000
  68.6839408  74.4149408   4.0160000  67.9259408  73.9279408   5.2330000
  68.5919408  80.0079408  11.6570000  67.6919408  79.6829408  11.6220000
  68.5009408  80.9549408  11.7650000  68.5059408  89.5499408   4.7200000
  69.2599408  89.8159408   4.1930000  68.6619408  89.9459408   5.5770000
  77.8569408  65.7969408   6.3200000  78.7739408  65.6119408   6.1180000
  77.3679408  65.4069408   5.5960000  84.8209408  67.4299408   8.6100000
  84.9309408  66.7309408   7.9650000  85.4989408  68.0679408   8.3900000
  69.6499408  71.8419408   7.8760000  70.4039408  72.2779408   8.2730000
  69.2779408  71.3139408   8.5820000  76.4069408  63.6289408  19.0480000
  77.1099408  64.2789408  19.0450000  76.1969408  63.5069408  19.9740000
  78.3389408  68.6359408  17.0160000  78.1949408  69.4509408  17.4970000
  79.2549408  68.4159408  17.1850000  67.8239408  69.7049408   1.9020000
  68.6989408  69.3949408   2.1340000  67.3699408  69.7939408   2.7400000
  73.4879408  68.3599408  17.7820000  72.5719408  68.4729408  18.0380000
  73.7179408  69.1799408  17.3450000  87.1329408  73.4899408   6.5760000
  86.2129408  73.7239408   6.4540000  87.5309408  74.2739408   6.9540000
  65.3759408  65.8509408   4.5400000  65.9379408  66.5929408   4.3170000
  65.1269408  66.0039408   5.4520000  83.5869408  71.2759408   3.3410000
  82.6949408  71.6219408   3.3230000  84.1119408  71.9439408   2.9000000
  80.1269408  77.4139408  17.2570000  80.8569408  78.0169408  17.1180000
  80.2649408  77.0689408  18.1390000  77.7229408  69.0149408  14.5310000
  78.2079408  69.8399408  14.5330000  77.7629408  68.7109408  15.4380000
  77.0589408  64.2909408   3.6940000  77.3229408  63.4279408   4.0130000
  76.3329408  64.1129408   3.0950000  69.2999408  64.7489408  16.6790000
  68.4779408  64.7659408  16.1890000  69.0309408  64.7099408  17.5970000
  70.2849408  69.8869408  12.5980000  70.8409408  69.1149408  12.4900000
  70.1829408  69.9779408  13.5460000  88.8309408  67.2719408   2.2880000
  88.8699408  66.9779408   3.1980000  89.5399408  66.7969408   1.8530000
  77.8369408  65.8009408  18.3520000  78.7399408  65.6199408  18.0890000
  77.7859408  66.7559408  18.3950000  72.3099408  77.8379408  18.4750000
  71.5999408  77.7869408  17.8350000  72.9599408  78.4099408  18.0670000
  81.5769408  70.0929408  13.5580000  80.8019408  70.5149408  13.9290000
  81.6999408  70.5189408  12.7100000  65.6739408  83.6199408   0.0820000
  66.0949408  83.8689408   0.9050000  66.3839408  83.2649408  -0.4520000
  63.0279408  78.2679408   1.4330000  63.1569408  79.2159408   1.4620000
  63.8729408  77.9189408   1.1520000  63.5549408  72.7819408   3.2750000
  62.7219408  72.4139408   3.5720000  63.4619408  73.7249408   3.4110000
  72.0799408  62.2879408  25.6550000  71.8949408  62.3419408  26.5920000
  71.6749408  63.0719408  25.2840000  80.1159408  63.8369408  15.0270000
  80.6079408  64.5009408  14.5440000  79.2639408  63.8059408  14.5920000
  62.6359408  69.1879408  12.6550000  62.1249408  69.8089408  13.1730000
  61.9839408  68.6069408  12.2650000  70.1199408  61.7629408   3.4120000
  69.5699408  61.8339408   2.6310000  70.9739408  62.0939408   3.1340000
  84.7679408  66.0699408  17.1460000  83.8289408  66.0299408  16.9640000
  85.1819408  65.7409408  16.3480000  65.1569408  71.4689408  15.1180000
  64.3929408  71.0489408  15.5120000  65.9069408  71.0229408  15.5130000
  76.3049408  77.8459408  18.6500000  76.4699408  78.5339408  18.0040000
  76.6669408  77.0539408  18.2540000  71.4229408  61.4139408  22.3640000
  71.7979408  61.2949408  23.2370000  72.1729408  61.6199408  21.8060000
  64.3739408  62.0349408  22.5920000  65.0449408  62.5869408  22.9950000
  63.7539408  62.6539408  22.2080000  67.8019408  76.5439408   7.0640000
  67.6149408  75.6139408   7.1890000  67.8329408  76.9049408   7.9500000
  61.7749408  60.6259408  28.9360000  62.5749408  61.0719408  29.2140000
  61.1079408  61.3129408  28.9280000  65.9589408  62.4859408  29.6520000
  65.4029408  62.4139408  30.4270000  65.4749408  62.0279408  28.9650000
  88.9339408  59.9049408  27.3680000  89.3039408  60.6489408  27.8430000
  89.4589408  59.8439408  26.5700000  73.0339408  74.4019408   3.2410000
  73.4299408  74.6769408   2.4150000  72.6019408  73.5729408   3.0360000
  74.6579408  61.6439408  24.3280000  75.2989408  61.5509408  25.0330000
  73.8909408  62.0299408  24.7510000  67.2109408  68.0059408   5.3860000
  66.6419408  68.7579408   5.5510000  67.9689408  68.1489408   5.9520000
  90.1159408  68.1649408  11.4220000  90.1929408  67.2509408  11.1470000
  89.2939408  68.4639408  11.0340000  81.0649408  69.6399408   2.0140000
  81.5329408  69.0169408   2.5690000  81.5449408  69.6309408   1.1850000
  64.8949408  78.8529408   6.4910000  65.2919408  79.6979408   6.7040000
  65.4089408  78.5259408   5.7530000  60.8779408  89.1329408   1.2170000
  61.1779408  89.6449408   0.4660000  61.0379408  88.2229408   0.9670000
  66.9089408  64.5699408  15.4710000  66.4269408  65.1219408  14.8560000
  66.2819408  64.3849408  16.1700000  76.1519408  76.8349408   6.9130000
  75.4469408  76.5409408   6.3350000  75.7099408  77.0769408   7.7270000
  61.6169408  69.6609408  25.2060000  62.3259408  69.5369408  25.8370000
  62.0529408  69.9679408  24.4120000  75.4429408  60.1609408  13.2290000
  76.1079408  59.5109408  13.4580000  75.5879408  60.8799408  13.8430000
  74.3959408  78.1949408  10.7400000  74.3709408  78.1429408  11.6950000
  74.2869408  77.2889408  10.4480000  74.6329408  83.1429408  10.1660000
  74.8209408  83.6079408   9.3500000  74.7559408  82.2189408   9.9490000
  75.3159408  72.0549408  16.3340000  74.9349408  72.8129408  16.7780000
  76.1729408  71.9419408  16.7450000  69.7159408  77.2639408   0.6440000
  70.4809408  76.8889408   0.2080000  70.0779408  77.7609408   1.3780000
  60.1669408  68.8079408  20.3710000  59.8829408  68.0049408  20.8070000
  59.9809408  69.5029408  21.0020000  74.3869408  80.9349408   1.0510000
  73.5169408  81.2199408   0.7720000  74.8489408  80.7409408   0.2360000
  70.7769408  69.9669408  15.3550000  71.7099408  70.1599408  15.2610000
  70.7469408  69.1889408  15.9110000  79.8279408  75.7489408  13.0870000
  80.5869408  75.7009408  13.6680000  79.2939408  74.9909408  13.3260000
  88.4329408  61.3169408  17.7720000  88.3759408  60.3929408  18.0160000
  88.3789408  61.7879408  18.6040000  76.9629408  76.6139408  22.6300000
  76.8069408  77.5369408  22.8310000  77.8629408  76.5879408  22.3060000
  86.9299408  71.9079408   1.8610000  86.9209408  72.4829408   2.6270000
  87.6339408  71.2839408   2.0360000  75.8339408  63.3109408   1.4930000
  76.3929408  62.5349408   1.4550000  75.4889408  63.4019408   0.6050000
  60.8749408  63.4179408  23.9600000  60.5559408  62.5409408  23.7490000
  61.6379408  63.5389408  23.3940000  73.8929408  79.7199408  17.2500000
  73.8199408  80.5249408  16.7370000  74.7049408  79.3139408  16.9450000
  70.5189408  67.1779408  15.9270000  70.5439408  66.3239408  16.3590000
  70.1409408  66.9999408  15.0660000  75.5579408  64.1889408  26.1150000
  74.8629408  64.8469408  26.1260000  75.7909408  64.1009408  25.1910000
  76.8989408  89.9439408   5.6780000  76.7499408  89.2089408   6.2740000
  76.6159408  89.6199408   4.8230000  69.8299408  87.2289408   5.4010000
  68.9329408  87.4469408   5.1470000  70.3679408  87.5429408   4.6740000
  61.1219408  66.0539408   9.6410000  60.6489408  66.3209408   8.8530000
  61.9209408  66.5809408   9.6320000  71.0869408  85.7069408   7.3250000
  70.8939408  86.1889408   8.1280000  70.7599408  86.2699408   6.6230000
  62.6749408  78.7829408  10.9760000  63.1839408  79.3299408  11.5740000
  63.0549408  78.9529408  10.1140000  73.9669408  75.5319408   5.7910000
  74.1179408  74.5939408   5.6770000  73.3829408  75.7699408   5.0710000
  62.1679408  64.6769408  12.0900000  61.6919408  65.0179408  11.3330000
  61.8439408  65.1909408  12.8290000  69.7219408  88.0699408   8.6160000
  69.4219408  88.0619408   7.7080000  69.1469408  88.6979408   9.0530000
  88.0529408  85.8899408  12.2050000  88.2489408  86.7309408  12.6180000
  87.0989408  85.8779408  12.1250000  73.8599408  66.7389408   2.4700000
  73.0679408  67.2019408   2.1940000  73.5509408  66.0939408   3.1060000
  70.5059408  79.8669408   6.1100000  69.8559408  79.5139408   5.5030000
  69.9949408  80.3779408   6.7380000  73.0909408  65.1259408   4.6640000
  73.6829408  65.1169408   5.4160000  72.3979408  64.5079408   4.8970000
  60.0379408  81.4779408   4.6990000  60.9309408  81.1549408   4.5830000
  59.4899408  80.8369408   4.2450000  75.7609408  85.8819408   4.7460000
  75.6409408  85.0999408   4.2060000  74.9199408  85.9989408   5.1890000
  74.2179408  80.3289408  13.1910000  74.4609408  81.2159408  12.9250000
  75.0449408  79.9189408  13.4450000  77.6079408  81.4719408  21.4500000
  77.1129408  82.1989408  21.8280000  77.2049408  80.6879408  21.8230000
  72.8429408  84.9729408  21.9030000  72.4879408  84.2539408  21.3800000
  73.3269408  85.5089408  21.2750000  64.6779408  82.4899408  16.5850000
  65.2769408  83.2359408  16.6160000  65.2109408  81.7439408  16.8610000
  65.7979408  81.3969408   6.7650000  66.4539408  81.7799408   7.3470000
  64.9819408  81.4349408   7.2640000  77.4849408  87.6719408   7.7400000
  76.6389408  87.2889408   7.9700000  77.8719408  87.0489408   7.1250000
  62.3099408  78.7869408   5.5240000  61.6629408  78.6259408   6.2120000
  63.1549408  78.6519408   5.9530000  74.3059408  88.7819408   7.3720000
  74.7559408  88.1469408   7.9280000  73.9669408  88.2639408   6.6420000
  84.3189408  84.7159408  14.1060000  84.8969408  83.9829408  13.8980000
  84.5489408  85.3919408  13.4680000  66.4959408  78.9039408   2.3800000
  65.9039408  79.5189408   1.9470000  65.9969408  78.0889408   2.4350000
  76.4369408  79.0669408  21.2430000  76.5039408  78.3559408  20.6060000
  75.6939408  79.5899408  20.9420000  67.2649408  83.0889408   3.3920000
  67.5729408  83.8519408   2.9040000  67.6459408  83.1919408   4.2640000
  70.3759408  83.4779408  17.1180000  69.6279408  83.2069408  17.6500000
  70.5139408  82.7509408  16.5100000  75.4449408  85.1009408  14.0140000
  76.2459408  85.2109408  13.5020000  75.0809408  84.2679408  13.7140000
  69.1669408  65.4379408   5.7480000  68.8509408  65.6709408   4.8750000
  69.4189408  64.5179408   5.6750000  64.2729408  80.1469408  12.5690000
  63.8439408  80.9559408  12.8460000  65.0339408  80.0699408  13.1450000
  63.2469408  75.4839408   3.2100000  63.6359408  76.1419408   2.6340000
  63.7999408  75.4919408   3.9910000  64.1789408  77.7809408   8.9290000
  64.2309408  78.1619408   8.0530000  63.5919408  77.0319408   8.8310000
  71.1639408  89.3629408  14.0990000  71.9599408  89.0219408  14.5070000
  70.8289408  90.0059408  14.7250000  71.2709408  89.4239408   0.7540000
  71.1439408  89.1009408  -0.1380000  70.7259408  90.2099408   0.8040000
  70.1639408  74.3359408  17.9330000  69.7059408  73.4989408  17.8530000
  70.9369408  74.2409408  17.3770000  66.7049408  84.8669408   7.0240000
  67.3139408  84.3839408   6.4660000  66.0519408  85.2189408   6.4190000
  60.7809408  77.7779408   3.0700000  61.3749408  77.8329408   3.8190000
  61.3059408  78.0689408   2.3250000  66.9129408  86.0559408  13.0170000
  66.7609408  86.9919408  13.1450000  67.8609408  85.9539408  13.1010000
  69.9689408  85.5049408  11.5150000  70.0609408  86.2039408  12.1630000
  69.5309408  85.9229408  10.7730000  72.8559408  62.0519408   9.6080000
  73.6339408  61.5559408   9.8640000  72.6389408  62.5739408  10.3800000
  70.9059408  82.2719408   1.9450000  70.8709408  81.3879408   1.5790000
  70.4339408  82.8129408   1.3120000  60.6149408  74.7429408   2.4330000
  59.9859408  75.4539408   2.5520000  61.4659408  75.1429408   2.6100000
  75.8529408  83.8829408   7.9390000  75.9139408  83.7729408   6.9900000
  76.7569408  84.0099408   8.2250000  67.6779408  75.6369408  18.2270000
  67.3809408  75.6059408  19.1360000  68.4549408  75.0779408  18.2080000
  64.3649408  82.5619408  10.9050000  63.8259408  83.0119408  11.5560000
  65.0559408  83.1889408  10.6910000  71.6299408  83.2589408  11.2250000
  71.9139408  83.2529408  10.3110000  70.9499408  83.9319408  11.2610000
  63.3079408  82.3489408  14.1740000  63.6449408  83.1049408  13.6930000
  63.8179408  82.3319408  14.9840000  80.0859408  63.0319408   1.4180000
  80.4329408  62.3479408   0.8450000  79.2249408  62.7079408   1.6830000
  88.1769408  62.4219408  20.1510000  87.3749408  62.2089408  20.6290000
  88.4289408  63.2859408  20.4760000  79.2209408  88.9019408   9.3070000
  78.6819408  89.2899408   9.9960000  78.5979408  88.6619408   8.6210000
  60.9919408  59.9949408  25.7370000  61.7769408  60.0659408  25.1940000
  61.2419408  60.3889408  26.5730000  60.7819408  76.6869408  15.9170000
  60.1779408  76.2529408  16.5200000  60.3069408  77.4619408  15.6180000
  66.7389408  84.1779408   9.9850000  66.8389408  85.0859408  10.2700000
  66.8689408  84.2079408   9.0370000  70.4329408  61.4439408  15.7220000
  70.5989408  61.4719408  16.6650000  70.7079408  62.3039408  15.4050000
  63.3309408  79.3729408  18.2010000  62.4419408  79.5659408  18.5000000
  63.8949408  79.6769408  18.9110000  86.3379408  68.5209408  14.7070000
  85.9319408  69.3879408  14.7270000  85.5999408  67.9109408  14.7000000
  63.1059408  81.9459408   8.1800000  63.4189408  82.7029408   8.6760000
  62.1519408  82.0229408   8.2010000  75.4369408  83.2539408  20.0090000
  76.0059408  83.1119408  19.2530000  75.0009408  82.4129408  20.1430000
  67.0619408  81.4499408   9.2770000  67.2629408  82.2119408   9.8210000
  66.5489408  80.8769408   9.8470000  72.0659408  88.8869408   9.7040000
  71.2279408  88.5389408   9.3980000  72.5209408  89.1529408   8.9050000
  71.2699408  86.0949408  16.5260000  71.8939408  86.0249408  15.8040000
  71.2699408  85.2259408  16.9290000  70.8659408  78.4719408   2.7640000
  70.6719408  79.4039408   2.8690000  71.5619408  78.2989408   3.3990000
  73.6439408  60.4429408   1.8470000  72.8629408  60.2199408   1.3410000
  73.6489408  61.3999408   1.8730000  63.1739408  60.5829408   4.5740000
  64.1289408  60.6499408   4.5680000  62.8779408  61.4079408   4.9580000
  88.8549408  83.9129408  10.4620000  88.1329408  83.2899408  10.3720000
  88.5459408  84.5469408  11.1090000  67.9939408  81.3219408  14.6600000
  68.8919408  81.3319408  14.9910000  67.9779408  82.0019408  13.9870000
  85.4639408  85.1709408   8.5830000  84.5769408  85.4189408   8.3240000
  85.9009408  84.9499408   7.7600000  84.4759408  80.8279408  19.0240000
  85.3199408  81.0919408  18.6570000  84.7019408  80.2359408  19.7420000
  72.9509408  61.3049408  12.5350000  73.5739408  60.6049408  12.7320000
  72.1069408  60.9639408  12.8300000  89.8429408  86.8959408   8.9490000
  89.2369408  86.1979408   8.6960000  90.4319408  86.4839408   9.5810000
  73.2739408  86.0209408   5.5640000  73.0779408  85.8549408   6.4860000
  72.5129408  85.6839408   5.0920000  73.9679408  83.1959408  12.7510000
  73.0609408  83.1179408  12.4530000  74.4749408  83.3119408  11.9480000
  67.1999408  62.1849408  19.7970000  67.7519408  61.4189408  19.6400000
  66.4489408  61.8439408  20.2840000  76.6659408  72.2829408   1.1970000
  76.1439408  73.0379408   0.9240000  76.2319408  71.9649408   1.9890000
  74.5009408  72.8519408   5.8720000  74.3729408  72.6739408   6.8040000
  73.6179408  72.8409408   5.5020000  70.8959408  79.7499408   9.9370000
  70.1039408  79.8069408  10.4710000  71.6099408  79.9329408  10.5480000
  79.0259408  74.6979408   5.6060000  79.1789408  75.5409408   6.0320000
  78.8219408  74.0999408   6.3250000  66.7689408  88.4729408  14.2330000
  67.3599408  89.2059408  14.4070000  65.9639408  88.6979408  14.6990000
  87.3529408  60.3099408  12.8330000  87.5099408  59.6729408  13.5300000
  87.9369408  61.0399408  13.0390000  72.1129408  78.3489408   7.7370000
  71.7449408  78.5769408   8.5910000  71.5649408  78.8179408   7.1070000
  84.6629408  79.5749408  12.4850000  84.9049408  78.8659408  13.0800000
  84.1909408  79.1409408  11.7740000  61.4539408  89.7109408  15.8930000
  61.4329408  90.6619408  16.0040000  62.2849408  89.5399408  15.4500000
  66.8329408  80.5419408  17.8900000  67.4509408  79.8449408  17.6710000
  66.2749408  80.1639408  18.5700000  85.2199408  74.8659408   1.3530000
  85.3179408  74.0859408   0.8060000  84.4369408  75.3009408   1.0120000
  78.8679408  87.6099408   3.3490000  79.7269408  87.3279408   3.6620000
  78.2529408  87.2769408   4.0020000  68.3579408  64.1779408   1.8600000
  68.4489408  64.8209408   2.5630000  67.5369408  63.7239408   2.0540000
  71.2019408  88.7629408   3.4690000  71.2119408  89.5939408   3.9450000
  71.6049408  88.9659408   2.6240000  70.2109408  88.4339408  11.9620000
  71.0079408  88.2959408  11.4500000  70.5229408  88.6039408  12.8510000
  61.6809408  88.4499408   7.5820000  62.3499408  87.9409408   7.1260000
  60.8959408  87.9039408   7.5440000  85.9239408  82.7609408  13.2040000
  85.7279408  82.7439408  12.2670000  86.0819408  81.8459408  13.4340000
  79.3099408  86.6769408  14.0320000  79.6109408  86.8749408  14.9190000
  79.3619408  85.7229408  13.9680000  63.3539408  84.7089408   9.0660000
  63.7559408  85.5449408   9.3010000  62.5179408  84.9489408   8.6650000
  61.4129408  86.7549408   0.3960000  62.1889408  87.0679408  -0.0690000
  61.2349408  85.8959408   0.0140000  89.6089408  87.8679408  15.3230000
  90.1049408  87.1339408  14.9590000  90.2649408  88.5469408  15.4810000
  82.3659408  74.6299408   8.6880000  81.7399408  74.6659408   9.4110000
  83.1379408  75.0919408   9.0160000  61.5119408  79.0599408  13.6060000
  60.8219408  79.4449408  13.0660000  62.0049408  78.5029408  13.0030000
  73.2799408  82.0519408  15.6120000  72.3279408  81.9589408  15.6370000
  73.5199408  81.8259408  14.7140000  72.9559408  81.3659408   6.3640000
  73.4859408  81.8059408   5.6990000  72.4029408  80.7609408   5.8690000
  63.4409408  66.1809408   1.9050000  64.0029408  66.8479408   1.5100000
  63.9759408  65.7989408   2.6010000  77.0119408  83.5979408   0.0990000
  77.4669408  84.3679408   0.4400000  76.1409408  83.9179408  -0.1370000
  78.2589408  72.5979408   7.4360000  77.7069408  71.9699408   6.9700000
  77.6589408  73.0499408   8.0290000  60.1369408  63.5589408   5.8370000
  59.9919408  62.6449408   5.5950000  60.0729408  63.5669408   6.7920000
  79.9039408  60.2909408  26.3150000  79.3069408  60.0529408  27.0240000
  80.2959408  61.1169408  26.5980000  65.0549408  60.9999408  27.6170000
  65.2369408  61.8089408  27.1400000  64.9239408  60.3429408  26.9330000
  64.7479408  86.4299408   2.0810000  64.8309408  85.7089408   2.7050000
  63.9279408  86.8609408   2.3190000  69.2759408  86.4629408  14.7030000
  69.7309408  86.2569408  15.5190000  69.1089408  87.4049408  14.7520000
  83.3719408  89.3539408  16.9710000  83.3079408  88.3989408  16.9860000
  82.9949408  89.6059408  16.1290000  76.2559408  83.4489408  22.4580000
  75.9049408  83.5529408  21.5740000  75.4959408  83.5559408  23.0320000
  66.9949408  75.9949408  20.7340000  66.4209408  75.7369408  21.4560000
  66.9939408  76.9519408  20.7580000  76.4109408  87.9309408  16.0400000
  76.7929408  88.4529408  16.7440000  76.9819408  88.0879408  15.2870000
  65.5179408  80.8639408   0.6340000  64.6129408  80.9029408   0.3240000
  65.8689408  81.7369408   0.4600000  74.6979408  85.7839408  19.6430000
  74.8279408  85.7939408  18.6940000  74.6369408  84.8559408  19.8670000
  68.4599408  62.5539408  24.9290000  68.0919408  61.8119408  25.4080000
  68.4689408  63.2689408  25.5650000  70.6369408  81.0749408  15.7480000
  71.0509408  80.3259408  16.1760000  70.8889408  80.9959408  14.8280000
  76.3829408  85.0279408  16.5230000  75.9809408  84.9789408  15.6560000
  76.6939408  85.9299408  16.5930000  68.7329408  85.2859408   2.7840000
  69.4529408  85.3559408   2.1580000  68.2929408  86.1349408   2.7390000
  86.7709408  63.6649408  22.7270000  86.7729408  62.8369408  23.2070000
  87.3549408  64.2339408  23.2270000  69.9189408  63.5539408  21.8240000
  69.1149408  63.4609408  22.3350000  70.5089408  62.8899408  22.1800000
  68.4839408  72.6569408  12.7750000  68.7579408  73.2109408  12.0450000
  69.2489408  72.1129408  12.9640000  64.8689408  82.0059408   4.4930000
  65.4839408  82.3369408   3.8380000  65.3879408  81.9349408   5.2950000
  61.1839408  83.8679408   2.2820000  61.7039408  83.3719408   1.6500000
  61.6219408  83.7219408   3.1200000  70.8449408  62.1909408  28.1290000
  69.9649408  61.9919408  27.8090000  70.7209408  62.4099408  29.0520000
  81.6459408  85.8579408  19.2480000  81.8839408  85.4889408  18.3980000
  81.1379408  85.1669408  19.6750000  86.5009408  83.4099408   3.8900000
  87.2679408  83.2959408   3.3290000  86.1529408  84.2679408   3.6490000
  75.8789408  62.1039408  21.6990000  75.5149408  61.9559408  22.5720000
  76.7829408  61.7959408  21.7610000  79.3409408  79.3989408  20.3370000
  79.0289408  79.1119408  19.4790000  78.5439408  79.5879408  20.8320000
  74.5349408  63.3569408  28.7370000  74.1719408  62.4879408  28.5610000
  75.0539408  63.5609408  27.9590000  73.0649408  61.5539408  20.0000000
  73.9649408  61.6039408  20.3230000  72.9399408  60.6309408  19.7800000
  68.2529408  61.2669408  28.1430000  67.5959408  61.4079408  28.8250000
  68.1889408  60.3329408  27.9390000  78.4869408  68.0279408   1.6070000
  79.1999408  68.3819408   2.1380000  78.0509408  68.7999408   1.2450000
  74.4529408  80.9099408   3.7780000  74.3679408  80.7669408   2.8350000
  75.0229408  80.2019408   4.0770000  85.0939408  63.0129408  25.4040000
  84.7599408  62.6939408  24.5660000  85.6369408  62.2969408  25.7340000
  75.7979408  88.7229408   3.2530000  75.6619408  87.7969408   3.0530000
  75.1299408  89.1799408   2.7420000  69.0859408  61.1759408   1.1750000
  68.4019408  60.5059408   1.1510000  68.6729408  61.9539408   0.8020000
  68.0329408  89.1679408  10.5370000  68.6119408  88.8459408  11.2270000
  67.5109408  89.8489408  10.9610000  72.8329408  76.8609408  13.8650000
  72.4649408  75.9809408  13.9370000  72.1939408  77.3459408  13.3420000
  65.5019408  60.1759408  20.8970000  65.1519408  60.8029408  21.5300000
  65.3639408  59.3209408  21.3060000  74.6709408  67.7959408   5.3550000
  75.3629408  67.6749408   4.7050000  74.3999408  66.9069408   5.5840000
  72.2429408  66.3459408   7.8770000  73.0639408  65.9189408   7.6340000
  71.5769408  65.9019408   7.3520000  84.9609408  75.1169408   6.4150000
  84.0719408  75.3439408   6.1410000  85.4919408  75.8699408   6.1570000
  79.3769408  67.5459408  12.7920000  79.5639408  67.9789408  11.9590000
  78.9799408  68.2279408  13.3340000  89.9389408  72.9329408  20.1570000
  89.2409408  73.5489408  19.9330000  89.5489408  72.0699408  20.0180000
  83.4369408  68.0999408  14.6000000  83.0629408  68.4679408  13.7990000
  83.0709408  67.2169408  14.6520000  87.4789408  63.9939408  10.6530000
  87.3369408  64.2939408   9.7560000  87.7139408  63.0699408  10.5640000
  83.8419408  67.9109408  11.1330000  83.2649408  68.4849408  10.6300000
  84.5029408  67.6239408  10.5030000  84.1399408  61.3499408  10.9420000
  83.2239408  61.4689408  11.1920000  84.1099408  60.7419408  10.2040000
  60.0609408  66.7279408  17.5830000  60.7789408  67.3319408  17.7720000
  59.7179408  67.0209408  16.7390000  79.3879408  72.0239408   1.7080000
  78.4449408  72.1189408   1.5730000  79.5609408  71.0969408   1.5410000
  78.6229408  64.8899408  12.5080000  79.1929408  64.4829408  11.8550000
  78.9969408  65.7609408  12.6440000  88.2209408  83.3229408  14.8680000
  87.5639408  83.4529408  14.1850000  89.0359408  83.1649408  14.3900000
  87.7609408  62.7849408   3.9490000  88.2159408  62.0179408   3.6010000
  87.0409408  62.9349408   3.3370000  75.8699408  67.0169408   0.6600000
  75.2029408  66.8519408   1.3270000  76.4569408  67.6569408   1.0610000
  85.9399408  65.4359408  14.7680000  86.1589408  65.8389408  13.9280000
  85.7629408  64.5199408  14.5560000  85.4509408  66.9699408   5.4990000
  84.8859408  66.2069408   5.3780000  85.7639408  67.1789408   4.6180000
  60.4629408  82.8909408  13.2580000  60.2129408  81.9829408  13.0880000
  61.3599408  82.8359408  13.5870000  78.4659408  83.8039408   9.1880000
  78.8379408  84.6159408   8.8460000  78.9149408  83.1109408   8.7040000
  76.7079408  67.0059408   3.8860000  77.1969408  67.5149408   3.2390000
  76.7849408  66.0999408   3.5860000  65.6159408  63.9159408  17.9620000
  66.1299408  63.4149408  18.5940000  65.1099408  63.2559408  17.4870000
  85.2969408  65.6169408  19.7390000  86.1719408  65.2819408  19.5430000
  84.9219408  65.8239408  18.8830000  65.4309408  68.9249408  13.3460000
  64.5449408  68.8439408  13.6980000  65.4069408  69.7229408  12.8170000
  89.5329408  60.6999408   3.3760000  90.1959408  60.7629408   2.6890000
  89.1429408  59.8339408   3.2540000  79.1209408  71.3209408  13.8360000
  78.7309408  71.3989408  12.9650000  78.7629408  72.0599408  14.3270000
  83.4509408  76.6139408  17.9200000  83.0099408  77.2459408  17.3520000
  82.8429408  76.4799408  18.6470000  61.2429408  85.3819408  11.0890000
  61.8839408  84.7989408  10.6820000  60.4409408  84.8619408  11.1370000
  60.5589408  63.4369408   2.1060000  60.9039408  63.9419408   1.3700000
  59.6199408  63.3699408   1.9320000  85.4529408  83.0009408   6.3470000
  86.1639408  82.5919408   6.8410000  85.8259408  83.1649408   5.4810000
  79.8289408  72.1619408   4.8400000  80.2879408  72.3219408   5.6640000
  79.5549408  73.0299408   4.5450000  85.5609408  71.1319408  15.4750000
  85.1189408  70.5969408  16.1340000  84.8589408  71.6419408  15.0700000
  61.6959408  74.5629408   5.6540000  61.0739408  74.5129408   4.9270000
  61.7619408  73.6639408   5.9750000  86.7429408  63.6139408  17.8620000
  86.4659408  64.0829408  17.0750000  86.0469408  62.9769408  18.0200000
  81.6259408  79.4869408   1.2030000  82.4039408  79.0829408   1.5860000
  81.3859408  80.1789408   1.8190000  89.2179408  83.7659408   5.8380000
  89.3659408  84.3189408   5.0710000  89.4309408  82.8809408   5.5410000
  81.2669408  60.7559408   8.5830000  81.3999408  61.0999408   9.4660000
  80.5919408  60.0849408   8.6870000  87.0209408  60.6149408  23.3560000
  86.1119408  60.3729408  23.1770000  87.4589408  59.7839408  23.5400000
  87.0549408  80.3509408  13.5330000  86.2059408  80.0659408  13.1960000
  87.4329408  79.5649408  13.9270000  83.3629408  65.0449408  11.8150000
  83.7649408  65.8809408  11.5770000  84.1039408  64.4649408  11.9930000
  84.9759408  61.0289408  20.1130000  84.6729408  61.3969408  19.2830000
  84.4759408  61.4979408  20.7810000  82.5319408  83.9129408  16.2690000
  83.3199408  83.8259408  16.8050000  82.8589408  84.0669408  15.3830000
  60.1739408  71.8329408  11.6060000  60.4409408  71.6049408  12.4960000
  60.8999408  72.3529408  11.2630000  85.7369408  79.1459408   8.1800000
  84.8499408  79.1279408   8.5390000  86.1869408  78.4239408   8.6170000
  76.6539408  69.5689408   7.1000000  76.2859408  69.1019408   6.3490000
  77.5579408  69.2609408   7.1550000  78.3429408  85.7469408   6.0430000
  78.8659408  84.9999408   5.7510000  77.5969408  85.7659408   5.4440000
  64.7929408  85.8129408   5.2480000  64.3529408  86.6369408   5.4600000
  64.0799408  85.1949408   5.0880000  83.2419408  83.1659408  10.4920000
  82.9709408  83.7249408   9.7630000  82.5509408  82.5069408  10.5570000
  85.7379408  86.5139408  16.0000000  85.5399408  85.6189408  15.7260000
  84.8859408  86.8929408  16.2160000  60.0309408  66.3349408   7.2890000
  59.4529408  65.8939408   6.6650000  60.7089408  66.7369408   6.7450000
  65.4109408  61.6389408  14.1010000  66.3529408  61.5459408  13.9540000
  65.1199408  62.2449408  13.4200000  72.0409408  63.7889408   0.3090000
  71.4489408  64.5119408   0.1020000  72.7159408  63.8299408  -0.3690000
  84.4599408  62.0869408  17.5660000  84.6979408  62.1839408  16.6440000
  83.9199408  61.2969408  17.5930000  68.5499408  64.3989408  19.4280000
  69.1569408  64.0959408  20.1040000  67.8149408  63.7869408  19.4750000
  81.2339408  61.7299408  11.0500000  81.0569408  61.7479408  11.9900000
  81.0979408  62.6329408  10.7630000  82.1169408  66.2239408  16.4610000
  81.5759408  66.8179408  16.9810000  81.6809408  66.1839408  15.6100000
  87.9949408  61.5439408   9.2960000  87.6689408  60.7739408   9.7610000
  87.5859408  61.4939408   8.4320000  64.1849408  79.2609408  15.5620000
  63.2749408  79.4589408  15.3410000  64.2369408  79.3929408  16.5080000
  81.5719408  76.0879408  19.4610000  81.2589408  76.5549408  20.2350000
  82.0279408  75.3219408  19.8100000  84.5889408  72.8039408  18.0590000
  85.3309408  72.2919408  17.7360000  84.9889408  73.5189408  18.5550000
  62.6959408  64.0899408  21.8710000  62.3059408  63.5869408  21.1560000
  62.9999408  64.8979408  21.4560000  82.9719408  89.7709408   6.6800000
  82.3179408  90.1079408   7.2920000  83.6439408  89.3789408   7.2390000
  90.0319408  69.3559408   7.3470000  89.0959408  69.2539408   7.5190000
  90.1719408  68.9109408   6.5120000  72.1399408  67.4559408  12.2220000
  73.0799408  67.4309408  12.0430000  71.9669408  66.6499408  12.7080000
  82.2569408  72.3619408  11.4830000  81.7519408  73.1539408  11.2990000
  82.2079408  71.8529408  10.6740000  87.9939408  68.9349408  18.7130000
  88.8849408  68.7869408  19.0320000  87.4419408  68.4079408  19.2910000
  62.6369408  68.9269408   8.6340000  63.0599408  69.1289408   9.4690000
  61.7709408  69.3279408   8.7010000  61.9669408  68.2519408  18.4270000
  62.8179408  68.6559408  18.5950000  61.4089408  68.5619408  19.1400000
  87.5039408  65.9579408  12.6760000  87.6349408  65.1329408  12.2080000
  87.4329408  66.6169408  11.9850000  80.1629408  63.2489408   7.1740000
  80.7889408  62.6829408   7.6270000  79.4289408  63.3299408   7.7820000
  76.8479408  89.6619408  10.6200000  76.3209408  89.0759408  11.1630000
  76.2789408  89.8849408   9.8840000  65.8869408  70.2809408   5.3640000
  65.6359408  70.8369408   6.1020000  65.8729408  70.8659408   4.6070000
  82.0509408  87.8479408  21.3780000  82.2919408  87.3129408  20.6220000
  82.4079408  88.7149408  21.1820000  86.0049408  88.4509408  20.5770000
  85.3879408  87.8689408  20.1320000  85.6789408  89.3319408  20.3920000
  75.9519408  75.9449408   0.6750000  75.0699408  75.6069408   0.8280000
  76.3909408  75.2529408   0.1800000  82.1649408  67.7679408   8.6350000
  83.0789408  67.4839408   8.6030000  82.1279408  68.5239408   8.0490000
  84.3869408  70.8979408   7.2380000  84.6949408  71.3449408   8.0260000
  85.0989408  71.0059408   6.6070000  80.4669408  87.5979408  16.5020000
  80.0149408  88.4079408  16.7400000  79.9129408  86.9009408  16.8520000
  77.1799408  84.4859408  11.5940000  77.1339408  84.0919408  10.7230000
  77.8769408  85.1389408  11.5260000  87.1109408  67.9229408  10.7590000
  86.6699408  68.6599408  11.1820000  87.2859408  68.2279408   9.8680000
  84.4309408  68.2329408   0.1660000  84.9999408  68.8329408  -0.3160000
  84.9499408  67.9689408   0.9260000  87.6649408  77.8339408  20.4340000
  87.0099408  77.9209408  21.1270000  87.7929408  78.7259408  20.1110000
  80.4459408  65.7249408   5.9510000  80.6899408  64.9389408   6.4390000
  81.2809408  66.0999408   5.6680000  83.0409408  85.6989408   7.7480000
  82.2169408  86.1149408   7.4950000  83.0589408  84.8799408   7.2530000
  75.0709408  63.1099408  11.9730000  75.9309408  62.7019408  11.8700000
  74.5769408  62.4959408  12.5170000  61.2549408  66.8109408  14.1630000
  60.3669408  66.7379408  14.5100000  61.5479408  67.6809408  14.4330000
  61.2039408  78.3319408   8.1590000  61.7869408  78.4599408   8.9080000
  60.4139408  77.9419408   8.5330000  85.3289408  73.5029408  11.5810000
  85.0329408  74.2309408  12.1270000  86.1189408  73.1829408  12.0170000
  87.1119408  87.8559408  14.3000000  86.6299408  87.3489408  14.9530000
  88.0099408  87.8809408  14.6300000  84.7879408  62.1149408   5.8990000
  84.1839408  61.3719408   5.9120000  85.6579408  61.7159408   5.9040000
  79.4179408  75.1679408  16.0930000  80.2329408  74.6729408  16.0060000
  79.6999408  76.0539408  16.3210000  87.7659408  73.5989408   3.8470000
  87.7389408  73.8419408   4.7720000  87.9009408  74.4269408   3.3850000
  65.1689408  74.5189408  16.3780000  65.8409408  74.4369408  17.0540000
  64.4199408  74.9079408  16.8290000  84.5049408  63.7859408   8.3370000
  84.6659408  63.1259408   7.6630000  85.3689408  63.9629408   8.7110000
  87.8919408  75.9599408   1.8140000  87.0629408  75.4949408   1.6950000
  88.2699408  76.0039408   0.9360000  81.4209408  65.9589408  13.7260000
  80.7449408  66.4539408  13.2630000  82.0389408  65.6999408  13.0420000
  64.4059408  70.8699408   1.0480000  63.6999408  71.4429408   1.3470000
  65.1239408  71.0339408   1.6600000  77.9489408  77.1749408  11.2960000
  77.9059408  76.2389408  11.0990000  78.8179408  77.2979408  11.6800000
  85.4809408  71.9639408   9.4060000  85.1199408  72.5119408  10.1030000
  86.2799408  71.5939408   9.7810000  87.2379408  64.9699408   8.0610000
  87.3909408  65.8909408   8.2740000  87.5609408  64.8749408   7.1650000
  76.7859408  78.4209408   1.6810000  76.7219408  77.5299408   1.3370000
  77.4129408  78.8559408   1.1040000  82.8489408  73.5719408  19.9600000
  83.5609408  73.2709408  19.3950000  82.1069408  73.0129408  19.7290000
  83.2589408  60.4689408  14.2250000  83.7039408  59.7619408  13.7580000
  83.9489408  61.1049408  14.4120000  68.5139408  78.9249408   4.6940000
  68.4449408  77.9949408   4.9100000  67.8739408  79.0569408   3.9950000
  60.9149408  72.1979408   3.5130000  60.7669408  72.8599408   2.8380000
  60.2449408  71.5339408   3.3490000  76.2619408  65.6629408  11.8050000
  77.1559408  65.3529408  11.9450000  75.7269408  64.8699408  11.8260000
  85.2609408  62.5219408  15.1500000  86.1599408  62.1979408  15.2140000
  85.1129408  62.6349408  14.2110000  86.0369408  69.7699408  12.4210000
  86.3529408  69.1019408  13.0300000  85.0999408  69.8379408  12.6050000
  83.0209408  68.4339408   3.5050000  83.2149408  69.3699408   3.4500000
  83.4379408  68.1499408   4.3190000  78.3969408  61.7669408   4.5070000
  78.1719408  61.0319408   5.0770000  79.3529408  61.8069408   4.5340000
  89.4079408  80.4649408  12.4830000  88.5159408  80.4729408  12.8300000
  89.2959408  80.4509408  11.5330000  79.9099408  68.3669408  10.0660000
  79.9099408  69.2509408   9.6990000  80.6139408  67.9149408   9.6030000
  82.3429408  77.8229408  13.7280000  82.4789408  78.5569408  14.3260000
  81.4959408  77.9999408  13.3180000  60.9789408  71.7839408   6.4660000
  60.8059408  71.5689408   5.5490000  60.8379408  70.9619408   6.9360000
  78.5449408  66.2349408   8.9460000  78.6869408  66.3049408   8.0020000
  78.8589408  67.0669408   9.2990000  77.5829408  62.1169408  11.6990000
  77.5359408  61.9249408  12.6360000  77.4419408  61.2719408  11.2740000
  83.0879408  66.0449408   2.2860000  83.1179408  66.9629408   2.5550000
  82.5769408  66.0479408   1.4770000  79.4299408  89.0179408   0.8690000
  80.3869408  89.0099408   0.8630000  79.1899408  88.4979408   1.6360000
  89.4029408  81.3029408  16.8030000  89.1189408  82.1149408  16.3830000
  90.2919408  81.4879408  17.1050000  89.9999408  63.3119408   8.7350000
  89.2879408  62.6869408   8.8720000  89.6239408  64.1599408   8.9690000
  67.9229408  60.9289408   7.0610000  68.3859408  61.4039408   7.7510000
  67.6119408  61.6119408   6.4670000  86.0629408  66.2019408   2.8730000
  86.7759408  66.4759408   2.2960000  85.4759408  65.7009408   2.3070000
  85.4119408  80.8149408   1.5320000  85.4999408  80.9999408   0.5970000
  86.2239408  80.3649408   1.7650000  88.3659408  65.4669408  19.3010000
  88.8039408  65.9929408  18.6320000  88.0599408  64.6899408  18.8330000
  73.7059408  60.8079408  28.7940000  72.8089408  60.6749408  29.0990000
  74.2449408  60.6919408  29.5770000  80.9419408  64.3839408  17.7550000
  80.5819408  63.9059408  17.0080000  81.5239408  65.0359408  17.3640000
  89.4049408  69.7769408   1.2160000  89.7829408  69.6169408   0.3520000
  88.8879408  68.9919408   1.4010000  87.5159408  71.6489408  18.8270000
  87.5849408  70.6959408  18.7670000  87.6049408  71.8379408  19.7610000
  88.1189408  73.0759408  23.9840000  88.7619408  72.6759408  24.5710000
  87.4529408  73.4369408  24.5690000  60.9759408  73.9229408  26.7960000
  61.2779408  74.0099408  27.7000000  61.7439408  73.6149408  26.3150000
  84.1129408  61.7349408  28.1150000  84.7809408  61.4299408  27.5010000
  84.4059408  62.6089408  28.3730000  81.7639408  73.3609408   2.3840000
  81.7739408  73.7069408   1.4920000  80.9559408  72.8499408   2.4340000
  60.6829408  64.4809408  26.5800000  60.8219408  64.3349408  25.6450000
  60.8769408  65.4089408  26.7100000  88.0309408  85.7699408   0.2010000
  87.6519408  86.3839408  -0.4290000  88.7909408  86.2309408   0.5560000
  88.7599408  88.1839408   3.0480000  88.8759408  87.2849408   3.3560000
  89.4779408  88.3219408   2.4310000  62.6489408  67.0719408  23.3300000
  62.9159408  67.8839408  22.8980000  62.1039408  66.6239408  22.6820000
  82.4329408  84.4709408   0.8190000  81.6569408  84.3989408   1.3750000
  82.5059408  83.6149408   0.3970000  79.5569408  79.2589408   4.7920000
  79.8279408  78.5009408   4.2750000  79.5719408  79.9889408   4.1730000
  86.9399408  70.5709408   5.5480000  87.2969408  71.4359408   5.7460000
  87.5429408  70.2049408   4.9000000  83.0549408  86.8219408  15.9560000
  82.1179408  86.8199408  16.1500000  83.1779408  86.0819408  15.3610000
  61.7139408  64.7479408   4.2270000  61.3929408  64.3309408   3.4270000
  61.0859408  64.4889408   4.9010000  86.7119408  88.8939408   1.2240000
  87.5319408  88.5429408   1.5710000  86.3319408  89.3829408   1.9540000
  84.2559408  83.5429408  18.3680000  84.2759408  82.7569408  18.9150000
  85.1489408  83.6239408  18.0320000  84.1759408  78.5089408   1.7660000
  84.5339408  79.3739408   1.5650000  84.8279408  78.1069408   2.3410000
  85.2449408  75.1359408  19.2390000  84.6809408  75.3399408  19.9860000
  85.0279408  75.8009408  18.5860000  87.8889408  62.9389408   0.7890000
  87.1389408  62.3659408   0.9500000  87.5709408  63.8159408   1.0000000
  89.4139408  63.1659408  16.0720000  89.2369408  62.3849408  16.5970000
  88.9069408  63.8589408  16.4960000  84.0009408  64.7069408   5.0710000
  83.8849408  64.5229408   4.1390000  84.2479408  63.8649408   5.4530000
  62.5169408  63.7909408  28.9940000  62.3399408  64.7299408  29.0370000
  62.0049408  63.4829408  28.2460000  69.8899408  71.8059408  17.1790000
  70.2009408  71.2239408  17.8720000  70.1229408  71.3559408  16.3660000
  83.6059408  72.7209408  14.1930000  83.3069408  72.6279408  13.2890000
  83.8659408  73.6389408  14.2670000  83.0969408  67.0939408  20.7320000
  83.5719408  67.7899408  20.2780000  83.5829408  66.2959408  20.5220000
  60.1209408  67.1739408  25.0360000  61.0009408  67.3079408  24.6820000
  59.6779408  68.0119408  24.9010000  81.2829408  64.2129408  10.2370000
  82.1709408  64.4309408  10.5200000  80.9569408  65.0169408   9.8310000
  65.2779408  71.5559408   7.5480000  64.8449408  70.9229408   8.1220000
  65.5749408  72.2489408   8.1370000  66.0519408  66.0389408  12.9900000
  66.7619408  65.9259408  12.3580000  65.9799408  66.9859408  13.1040000
  60.5089408  69.7659408  13.8980000  59.8269408  69.7809408  14.5700000
  60.2249408  69.0889408  13.2830000  82.0069408  73.9469408  16.1180000
  82.6479408  73.3789408  15.6900000  82.4899408  74.3509408  16.8390000
  84.1139408  63.7159408  21.1230000  84.5879408  64.4759408  20.7840000
  84.5419408  63.5189408  21.9560000  59.8739408  69.2279408  27.4500000
  60.4399408  69.4969408  26.7260000  60.4529408  68.7489408  28.0430000
  73.7419408  66.4529408  15.6390000  74.2449408  66.8479408  14.9270000
  73.4279408  67.1979408  16.1520000  63.9139408  74.3159408  20.0960000
  63.3239408  75.0459408  20.2810000  63.8699408  74.2069408  19.1460000
  79.3529408  69.0949408  19.9650000  78.9699408  69.8979408  20.3180000
  79.1119408  68.4159408  20.5960000  77.2159408  62.2419408  14.2630000
  77.4569408  61.6839408  15.0030000  76.9959408  63.0849408  14.6600000
  66.1759408  63.6459408  23.8610000  67.0319408  63.4339408  24.2340000
  65.6269408  63.8449408  24.6190000  60.6509408  74.1239408  23.5250000
  59.7119408  73.9479408  23.5810000  60.9809408  73.4709408  22.9080000
  62.0539408  72.5049408  21.6720000  62.7779408  73.0489408  21.3630000
  61.3189408  72.7389408  21.1060000  87.4739408  68.2959408   7.3770000
  87.0789408  69.0559408   6.9490000  87.4529408  67.6089408   6.7110000
  64.6389408  68.2059408   0.3610000  64.5499408  69.1419408   0.5400000
  65.5799408  68.0399408   0.4160000  63.5789408  65.2939408  14.7230000
  64.2869408  65.7469408  14.2640000  62.8469408  65.9109408  14.7040000
  79.6399408  77.0629408  21.6660000  80.2749408  77.2579408  22.3550000
  79.4069408  77.9179408  21.3040000  87.1349408  72.3819408  21.4320000
  86.3539408  71.8949408  21.6950000  87.7049408  72.3559408  22.2000000
  61.7099408  64.5589408  17.3620000  61.2679408  64.1129408  16.6390000
  61.0809408  65.2169408  17.6580000  63.7859408  63.1389408   5.5410000
  64.7399408  63.2159408   5.5740000  63.5029408  63.8839408   5.0110000
  78.5159408  85.7009408   0.7170000  78.6129408  86.6029408   1.0230000
  79.1969408  85.5999408   0.0510000  84.3199408  75.3179408  13.4330000
  83.7379408  76.0469408  13.2200000  84.8819408  75.6559408  14.1310000
  82.5469408  75.5769408   4.2880000  81.8889408  76.0879408   3.8160000
  82.4899408  74.7009408   3.9070000  79.5539408  60.0589408  17.2370000
  79.8519408  60.3489408  16.3750000  78.6799408  60.4369408  17.3290000
  84.5779408  86.1839408  19.7680000  85.3119408  85.7339408  19.3490000
  83.8019408  85.8429408  19.3220000  81.9709408  89.7309408   4.2900000
  81.4919408  90.5529408   4.3860000  82.2929408  89.5359408   5.1700000
  79.7779408  83.9979408  13.5600000  80.2779408  84.1409408  12.7560000
  80.3799408  83.5269408  14.1360000  76.2369408  62.5929408   7.0360000
  76.4979408  61.7169408   6.7530000  77.0569408  63.0199408   7.2820000
  77.8549408  63.6489408   8.8230000  78.0219408  64.5789408   8.9790000
  77.6949408  63.2839408   9.6930000  80.3289408  84.1079408   2.8240000
  79.6049408  84.5969408   2.4350000  80.2499408  84.2699408   3.7640000
  81.6989408  60.0119408  19.4060000  82.3109408  59.7979408  18.7010000
  80.9559408  60.4209408  18.9620000  87.1489408  81.4149408   8.1260000
  87.0169408  81.9989408   8.8730000  86.3659408  80.8649408   8.1090000
  81.1139408  62.1109408   4.7390000  81.1109408  62.6599408   5.5240000
  81.5609408  62.6399408   4.0780000  82.0079408  70.1399408  16.2200000
  81.9829408  70.3189408  15.2790000  82.8879408  69.7949408  16.3750000
  76.6089408  78.0909408  13.3550000  76.7289408  77.5009408  12.6110000
  77.4469408  78.5439408  13.4390000  87.8639408  77.4319408   9.3610000
  87.7469408  77.2979408  10.3010000  88.3079408  78.2779408   9.2930000
  61.0329408  85.6039408  13.9710000  60.2089408  85.2399408  14.2930000
  61.2309408  85.0919408  13.1870000  61.9339408  89.6879408  18.6420000
  62.2469408  88.7839408  18.6550000  61.5109408  89.7829408  17.7880000
  61.1559408  78.4609408  20.0400000  60.2709408  78.7809408  19.8660000
  61.0349408  77.5459408  20.2950000  62.0799408  88.3339408   3.5080000
  61.6479408  88.7749408   2.7770000  62.4669408  89.0439408   4.0210000
  77.4589408  79.6149408   6.9330000  76.5709408  79.2699408   7.0270000
  77.7209408  79.3639408   6.0470000  86.6749408  77.5639408  13.5590000
  86.2789408  77.7839408  14.4030000  86.8119408  76.6169408  13.5990000
  79.9319408  83.5469408   5.4520000  79.4589408  82.7149408   5.4690000
  80.8459408  83.3059408   5.6030000  83.0439408  81.6259408  13.4910000
  82.5689408  81.6099408  12.6600000  83.9519408  81.4399408  13.2520000
  81.5259408  87.0239408   3.9340000  81.8329408  86.7029408   3.0860000
  81.8009408  87.9409408   3.9570000  82.5659408  83.1829408   6.2490000
  82.5139408  82.3989408   6.7960000  83.4839408  83.2299408   5.9820000
  85.2289408  63.2469408  12.4100000  84.8559408  62.6399408  11.7710000
  86.0849408  63.4789408  12.0500000  63.0529408  86.7679408  15.5720000
  62.4119408  86.2939408  15.0430000  63.1159408  87.6289408  15.1590000
  84.1119408  81.8259408   3.7350000  84.7569408  82.4489408   4.0690000
  84.4369408  81.5849408   2.8680000  85.3229408  76.5199408   3.7300000
  85.4299408  75.8639408   3.0410000  84.4889408  76.2979408   4.1450000
  88.0719408  75.0429408  14.1250000  88.3279408  74.1539408  13.8810000
  88.7059408  75.6059408  13.6790000  81.4969408  77.6769408   8.9910000
  80.6869408  77.9649408   9.4120000  81.2069408  77.1699408   8.2330000
  81.3089408  81.2979408  10.9070000  80.3719408  81.3809408  11.0840000
  81.3559408  80.9219408  10.0280000  82.7679408  79.3119408  17.3790000
  82.3009408  80.0629408  17.0110000  83.4259408  79.6989408  17.9570000
  79.7129408  81.5399408   7.5910000  79.1179408  80.8719408   7.2500000
  80.5109408  81.0599408   7.8100000  83.7039408  77.7479408  10.5130000
  84.1529408  76.9339408  10.2860000  82.9529408  77.7799408   9.9200000
  87.4709408  85.8359408   6.5070000  87.7579408  84.9329408   6.6370000
  87.3959408  85.9299408   5.5570000  88.9979408  75.2499408  17.3840000
  88.6679408  75.0439408  18.2580000  88.5579408  74.6249408  16.8080000
  77.0249408  82.7099408  17.6690000  76.8809408  82.0149408  17.0260000
  76.7759408  83.5139408  17.2140000  85.5159408  62.1409408   2.2740000
  84.6969408  62.6339408   2.2290000  85.2789408  61.3189408   2.7030000
  87.8379408  76.4779408   4.9610000  87.1649408  76.4449408   4.2810000
  88.2269408  77.3489408   4.8720000  71.7949408  64.1809408  15.4660000
  71.0579408  64.3869408  16.0420000  72.4969408  64.7619408  15.7580000
  84.6279408  89.7129408   3.2650000  83.6809408  89.5999408   3.3410000
  84.9819408  89.3039408   4.0550000  84.1549408  88.4689408   8.6710000
  84.9869408  87.9959408   8.6860000  83.5239408  87.8559408   9.0480000
  87.6299408  88.3429408   7.5860000  87.5669408  87.3909408   7.5050000
  87.5549408  88.5079408   8.5260000  86.7179408  83.2369408  17.1170000
  87.0469408  83.5299408  16.2670000  86.4409408  82.3329408  16.9690000
  88.6429408  83.4169408   2.1320000  89.5469408  83.7219408   2.2000000
  88.2299408  84.0239408   1.5180000  78.1019408  89.3339408  13.8490000
  78.8249408  89.9569408  13.9170000  78.5209408  88.5029408  13.6270000
  60.8829408  75.8929408  20.9960000  61.0199408  75.6469408  21.9110000
  60.0429408  75.4959408  20.7640000  89.7119408  87.0349408  18.1520000
  89.5509408  87.4989408  17.3300000  89.2639408  87.5589408  18.8150000
  85.3029408  86.0099408  11.7730000  85.0519408  85.5969408  10.9470000
  84.6769408  86.7259408  11.8830000  75.4609408  83.4619408   3.0360000
  75.9439408  83.2799408   2.2300000  75.3659408  82.6069408   3.4560000
  73.5109408  87.9189408  15.3630000  74.4469408  87.8499408  15.5500000
  73.2639408  87.0499408  15.0470000  85.1669408  85.1589408   1.8110000
  84.2559408  84.8679408   1.8270000  85.3879408  85.2049408   0.8810000
  81.1539408  87.1659408   6.5480000  81.4189408  86.9389408   5.6570000
  81.5359408  88.0299408   6.7000000  76.0469408  64.5639408  15.7710000
  76.0809408  64.5099408  16.7260000  75.4529408  65.2939408  15.5940000
  62.8799408  87.4629408  12.2670000  62.0239408  87.0379408  12.2150000
  63.2679408  87.3299408  11.4030000  88.6919408  79.2009408   3.8620000
  89.5599408  78.8229408   3.7170000  88.1619408  78.8679408   3.1380000
  87.3199408  78.8899408   1.5420000  87.8129408  79.1749408   0.7720000
  87.3469408  77.9339408   1.5040000  60.1709408  85.8719408   3.6420000
  60.6029408  85.3299408   2.9810000  60.8439408  86.4929408   3.9200000
  81.9069408  80.2649408   8.2860000  81.7919408  79.3209408   8.3890000
  82.4119408  80.3589408   7.4790000  80.8209408  85.7819408  11.5460000
  80.6039408  85.9449408  10.6280000  80.7959408  86.6459408  11.9560000
  87.3569408  61.1799408   6.2670000  87.6309408  61.6629408   5.4870000
  88.0139408  60.4909408   6.3660000  78.4929408  80.8929408  11.3400000
  78.2899408  80.2629408  10.6490000  77.8709408  81.6069408  11.2050000
  87.5929408  88.9229408  10.4380000  87.4519408  89.3709408  11.2720000
  88.5019408  88.6269408  10.4740000  60.6229408  85.0849408  19.8260000
  61.5509408  84.8679408  19.9130000  60.5909408  85.7159408  19.1080000
  89.5049408  69.6089408   3.9390000  89.2369408  69.4409408   3.0360000
  90.3389408  69.1489408   4.0320000  84.9399408  88.5519408  12.8940000
  85.6679408  88.0659408  13.2810000  85.3499408  89.3119408  12.4820000
  86.2609408  80.5759408  16.5330000  85.9599408  79.7359408  16.1870000
  87.1519408  80.4039408  16.8380000  60.9209408  89.9589408   9.9480000
  61.4189408  89.3979408   9.3520000  60.0779408  90.0829408   9.5120000
  60.1289408  60.2789408   6.1440000  60.1339408  60.2069408   5.1890000
  60.6739408  59.5509408   6.4420000  80.1059408  86.3139408   8.9570000
  80.3829408  86.3689408   8.0430000  79.8789408  87.2129408   9.1940000
  77.8029408  61.4979408   2.0150000  77.8179408  61.3079408   2.9530000
  77.9959408  60.6579408   1.5970000  81.2849408  81.4409408   3.2030000
  82.1909408  81.6019408   3.4660000  80.9289408  82.3109408   3.0260000
  84.8339408  78.1349408  15.5300000  85.1179408  77.2749408  15.8380000
  84.2629408  78.4619408  16.2250000  85.9399408  83.0769408  10.1740000
  85.0409408  82.8989408  10.4490000  85.8779408  83.8789408   9.6550000
  60.5509408  83.0329408   8.3860000  60.1859408  83.4379408   7.6000000
  59.8569408  83.1109408   9.0410000  79.0939408  85.2559408  17.6310000
  78.8449408  85.5209408  18.5160000  78.5189408  84.5169408  17.4310000
  86.0789408  88.6559408   5.3270000  86.5179408  88.9459408   6.1270000
  86.5309408  87.8469408   5.0860000  81.9989408  87.5469408   1.0180000
  82.9239408  87.6119408   0.7810000  81.7279408  86.6889408   0.6910000
  77.6129408  80.7449408   3.2240000  77.4149408  79.8939408   2.8320000
  77.7729408  81.3209408   2.4770000  79.1839408  82.3919408  19.3730000
  78.8759408  82.0519408  20.2130000  78.3959408  82.4469408  18.8330000
  89.3329408  80.1069408   9.6110000  90.1389408  80.5079408   9.2850000
  88.7129408  80.1949408   8.8870000  89.7389408  61.2499408  22.7270000
  89.9719408  60.5979408  22.0660000  88.7969408  61.1349408  22.8560000
  88.0669408  75.0089408  20.1910000  88.0739408  75.9439408  19.9830000
  87.1889408  74.8459408  20.5340000  86.1169408  60.6769408  26.5390000
  85.8869408  60.0879408  25.8210000  86.9099408  60.2969408  26.9170000
  63.7959408  62.6399408   1.5360000  63.1589408  63.0979408   0.9870000
  63.2689408  62.0539408   2.0780000  80.7379408  63.9019408  20.2470000
  80.8629408  63.9519408  19.3000000  81.6089408  64.0529408  20.6130000
  76.8359408  61.2099408  27.0900000  77.4759408  60.5949408  27.4500000
  77.1229408  62.0669408  27.4050000  86.1579408  86.4039408   3.9090000
  85.6669408  87.2129408   4.0520000  85.8099408  86.0549408   3.0890000
  83.6199408  84.9529408  22.0760000  82.8519408  84.5989408  21.6270000
  84.1499408  85.3379408  21.3780000  81.2529408  83.5169408  20.7880000
  80.5179408  83.0819408  20.3570000  80.8559408  83.9929408  21.5170000
  62.7039408  81.1609408   0.5350000  61.8629408  81.6189408   0.5440000
  62.8899408  81.0209408  -0.3940000  78.5739408  86.5729408  19.9790000
  79.3969408  87.0059408  20.2050000  77.9349408  86.9379408  20.5900000
  83.9579408  61.6669408  23.3620000  83.0839408  61.9459408  23.6370000
  84.0009408  60.7409408  23.6010000  83.5929408  80.4459408   6.1030000
  84.4549408  80.0469408   6.2220000  83.6239408  80.8299408   5.2270000
  81.0189408  81.9559408  17.3460000  80.6409408  82.0609408  18.2200000
  81.4569408  82.7889408  17.1720000  82.3159408  60.6029408   0.0200000
  82.8489408  60.3259408   0.7650000  82.9519408  60.8169408  -0.6630000
  62.0639408  62.4419408  19.6400000  62.0359408  63.1009408  18.9460000
  61.3919408  61.8059408  19.3950000  76.0279408  89.2599408  18.5900000
  75.0909408  89.1729408  18.4130000  76.1359408  88.9249408  19.4800000
  80.3859408  84.2079408  23.2040000  80.0829408  85.1069408  23.3300000
  79.8389408  83.6859408  23.7910000  60.8689408  66.2169408   0.9050000
  61.1979408  66.6709408   0.1290000  61.6129408  66.1979408   1.5060000
  73.1139408  89.2469408  18.1040000  73.4209408  88.6579408  17.4150000
  72.3449408  89.6749408  17.7280000  81.2879408  65.2629408  59.9310000
  80.5409408  64.9539408  60.4440000  80.9199408  65.9259408  59.3470000
  62.5329408  67.1629408  58.8470000  63.2739408  67.5749408  59.2930000
  62.8629408  66.9599408  57.9720000  69.6549408  84.0029408  60.1860000
  69.0479408  84.5939408  59.7410000  70.5229408  84.3469408  59.9750000
  72.2769408  69.0759408  56.9600000  71.8759408  69.8269408  56.5240000
  72.9859408  69.4519408  57.4820000  67.2079408  68.2029408  59.8520000
  67.3599408  68.7419408  60.6280000  68.0649408  68.1409408  59.4310000
  66.0069408  60.8799408  34.4630000  66.8559408  60.4709408  34.2940000
  66.1609408  61.8149408  34.3310000  72.1909408  63.0269408  36.6490000
  72.5829408  63.5069408  37.3790000  72.8259408  62.3399408  36.4440000
  72.6159408  62.7419408  32.6460000  72.2479408  63.1119408  31.8440000
  73.2749408  63.3789408  32.9240000  61.5759408  61.8369408  42.3790000
  61.6699408  61.3979408  41.5340000  61.7809408  62.7539408  42.1980000
  65.8779408  71.1339408  58.3530000  66.6849408  71.2089408  58.8610000
  65.1959408  70.9759408  59.0060000  69.9729408  61.6209408  39.1660000
  70.8859408  61.7839408  38.9290000  70.0159408  61.2549408  40.0490000
  78.2509408  70.8129408  57.5970000  77.9399408  70.8729408  56.6940000
  79.1989408  70.9269408  57.5330000  73.9919408  70.0189408  59.0960000
  74.7189408  69.4589408  59.3680000  74.3539408  70.5539408  58.3890000
  75.0069408  67.1169408  58.0480000  75.2319408  67.0419408  58.9750000
  74.1499408  66.6969408  57.9740000  62.4699408  62.2689408  39.4860000
  61.9209408  63.0069408  39.2190000  61.8819408  61.5139408  39.4670000
  75.7109408  72.0629408  58.0250000  76.5479408  71.6029408  58.0980000
  75.9129408  72.9669408  58.2670000  73.4439408  60.5639408  35.1250000
  74.2609408  60.5429408  35.6220000  73.7179408  60.5099408  34.2090000
  74.7319408  65.0299408  36.7360000  75.2879408  64.2539408  36.6670000
  75.2679408  65.6689408  37.2060000  67.7279408  73.2519408  56.7680000
  67.4999408  72.7349408  57.5410000  68.4259408  73.8349408  57.0650000
  64.4319408  59.9699408  39.1520000  64.9539408  60.3289408  39.8690000
  63.7079408  60.5879408  39.0490000  62.1939408  62.4329408  45.0200000
  61.9859408  62.0149408  44.1840000  62.7589408  63.1699408  44.7850000
  72.8319408  66.0959408  55.8560000  72.2219408  66.7999408  56.0740000
  72.2899408  65.4319408  55.4300000  82.0739408  69.3869408  59.4840000
  82.9599408  69.0269408  59.4310000  81.4999408  68.6319408  59.3590000
  72.0799408  62.2879408  55.6550000  71.8949408  62.3419408  56.5920000
  71.6749408  63.0719408  55.2840000  65.6959408  66.5609408  57.9650000
  66.2729408  66.7839408  57.2350000  66.2299408  66.7069408  58.7460000
  70.1199408  61.7629408  33.4120000  69.5699408  61.8339408  32.6310000
  70.9739408  62.0939408  33.1340000  67.1549408  67.1399408  55.5410000
  66.6739408  67.0259408  54.7220000  67.2739408  68.0859408  55.6200000
  64.3739408  62.0349408  52.5920000  65.0449408  62.5869408  52.9950000
  63.7539408  62.6539408  52.2080000  69.5459408  74.8449408  57.9910000
  69.9689408  75.6099408  57.6000000  69.0599408  75.1949408  58.7380000
  61.7749408  60.6259408  58.9360000  62.5749408  61.0719408  59.2140000
  61.1079408  61.3129408  58.9280000  68.8229408  79.2789408  58.8730000
  69.0599408  78.7649408  59.6450000  68.2279408  79.9509408  59.2050000
  70.8119408  64.5099408  54.7060000  69.9129408  64.5729408  55.0290000
  70.7219408  64.4639408  53.7540000  68.1589408  71.4079408  59.5170000
  69.1069408  71.5379408  59.5250000  67.9899408  70.8219408  60.2550000
  65.9589408  62.4859408  59.6520000  65.4029408  62.4139408  60.4270000
  65.4749408  62.0279408  58.9650000  88.9339408  59.9049408  57.3680000
  89.3039408  60.6489408  57.8430000  89.4589408  59.8439408  56.5700000
  65.1149408  64.0059408  56.8730000  64.1869408  64.1409408  56.6820000
  65.3489408  64.7299408  57.4530000  71.3459408  73.1939408  58.8840000
  70.7059408  73.7409408  58.4290000  71.9039408  72.8469408  58.1880000
  88.4329408  61.3169408  47.7720000  88.3759408  60.3929408  48.0160000
  88.3789408  61.7879408  48.6040000  75.8339408  63.3109408  31.4930000
  76.3929408  62.5349408  31.4550000  75.4889408  63.4019408  30.6050000
  60.8749408  63.4179408  53.9600000  60.5559408  62.5409408  53.7490000
  61.6379408  63.5389408  53.3940000  69.3779408  68.0839408  58.2570000
  68.8019408  68.1769408  57.4980000  70.1869408  68.5259408  58.0000000
  62.1679408  64.6769408  42.0900000  61.6919408  65.0179408  41.3330000
  61.8439408  65.1909408  42.8290000  73.0909408  65.1259408  34.6640000
  73.6829408  65.1169408  35.4160000  72.3979408  64.5079408  34.8970000
  72.8559408  62.0519408  39.6080000  73.6339408  61.5559408  39.8640000
  72.6389408  62.5739408  40.3800000  88.1769408  62.4219408  50.1510000
  87.3749408  62.2089408  50.6290000  88.4289408  63.2859408  50.4760000
  60.9919408  59.9949408  55.7370000  61.7769408  60.0659408  55.1940000
  61.2419408  60.3889408  56.5730000  75.4369408  83.2539408  50.0090000
  76.0059408  83.1119408  49.2530000  75.0009408  82.4129408  50.1430000
  73.6439408  60.4429408  31.8470000  72.8629408  60.2199408  31.3410000
  73.6489408  61.3999408  31.8730000  63.1739408  60.5829408  34.5740000
  64.1289408  60.6499408  34.5680000  62.8779408  61.4079408  34.9580000
  67.9659408  83.2009408  54.6000000  68.6309408  82.7009408  54.1270000
  67.9549408  84.0549408  54.1660000  69.7699408  82.6009408  56.6800000
  69.2829408  82.6389408  55.8560000  69.7329408  83.4939408  57.0220000
  87.3529408  60.3099408  42.8330000  87.5099408  59.6729408  43.5300000
  87.9369408  61.0399408  43.0390000  68.3579408  64.1779408  31.8600000
  68.4489408  64.8209408  32.5630000  67.5369408  63.7239408  32.0540000
  63.4409408  66.1809408  31.9050000  64.0029408  66.8479408  31.5100000
  63.9759408  65.7989408  32.6010000  67.1949408  82.4749408  58.1130000
  66.6079408  82.3649408  57.3650000  68.0739408  82.3999408  57.7400000
  60.1369408  63.5589408  35.8370000  59.9919408  62.6449408  35.5950000
  60.0729408  63.5669408  36.7920000  68.6959408  64.9359408  56.2190000
  68.5659408  64.8349408  57.1620000  67.9669408  65.4869408  55.9330000
  65.0549408  60.9999408  57.6170000  65.2369408  61.8089408  57.1400000
  64.9239408  60.3429408  56.9330000  76.2559408  83.4489408  52.4580000
  75.9049408  83.5529408  51.5740000  75.4959408  83.5559408  53.0320000
  68.4599408  62.5539408  54.9290000  68.0919408  61.8119408  55.4080000
  68.4689408  63.2689408  55.5650000  86.7709408  63.6649408  52.7270000
  86.7729408  62.8369408  53.2070000  87.3549408  64.2339408  53.2270000
  65.4859408  77.0279408  55.4590000  65.3769408  76.1209408  55.7470000
  66.3439408  77.2849408  55.7970000  70.8449408  62.1909408  58.1290000
  69.9649408  61.9919408  57.8090000  70.7209408  62.4099408  59.0520000
  74.5349408  63.3569408  58.7370000  74.1719408  62.4879408  58.5610000
  75.0539408  63.5609408  57.9590000  68.2529408  61.2669408  58.1430000
  67.5959408  61.4079408  58.8250000  68.1889408  60.3329408  57.9390000
  85.0939408  63.0129408  55.4040000  84.7599408  62.6939408  54.5660000
  85.6369408  62.2969408  55.7340000  69.0859408  61.1759408  31.1750000
  68.4019408  60.5059408  31.1510000  68.6729408  61.9539408  30.8020000
  65.5019408  60.1759408  50.8970000  65.1519408  60.8029408  51.5300000
  65.3639408  59.3209408  51.3060000  70.7739408  66.2109408  59.9660000
  71.1209408  66.8889408  60.5450000  70.1539408  66.6719408  59.4000000
  89.5329408  60.6999408  33.3760000  90.1959408  60.7629408  32.6890000
  89.1429408  59.8339408  33.2540000  60.5589408  63.4369408  32.1060000
  60.9039408  63.9419408  31.3700000  59.6199408  63.3699408  31.9320000
  78.0169408  67.0069408  57.2190000  77.3259408  66.5609408  57.7080000
  78.0999408  66.5049408  56.4080000  79.8959408  67.7829408  59.2340000
  79.4559408  67.5179408  58.4260000  79.2739408  67.5689408  59.9280000
  84.1839408  64.4299408  59.2750000  83.9199408  65.0219408  58.5710000
  83.4349408  64.4179408  59.8720000  87.0209408  60.6149408  53.3560000
  86.1119408  60.3729408  53.1770000  87.4589408  59.7839408  53.5400000
  84.9759408  61.0289408  50.1130000  84.6729408  61.3969408  49.2830000
  84.4759408  61.4979408  50.7810000  86.3219408  67.4929408  53.9420000
  86.3019408  66.7529408  54.5480000  87.1049408  67.9849408  54.1900000
  80.9789408  71.3509408  58.1040000  81.4849408  70.7389408  58.6380000
  81.4719408  71.4199408  57.2860000  72.0409408  63.7889408  30.3090000
  71.4489408  64.5119408  30.1020000  72.7159408  63.8299408  29.6310000
  84.4599408  62.0869408  47.5660000  84.6979408  62.1839408  46.6440000
  83.9199408  61.2969408  47.5930000  87.6739408  67.2299408  58.4930000
  88.1929408  68.0039408  58.2730000  87.5139408  66.7999408  57.6530000
  77.0459408  69.7769408  60.0950000  76.9329408  70.7139408  60.2500000
  77.3599408  69.7189408  59.1920000  87.9949408  61.5439408  39.2960000
  87.6689408  60.7739408  39.7610000  87.5859408  61.4939408  38.4320000
  62.6959408  64.0899408  51.8710000  62.3059408  63.5869408  51.1560000
  62.9999408  64.8979408  51.4560000  84.7879408  62.1149408  35.8990000
  84.1839408  61.3719408  35.9120000  85.6579408  61.7159408  35.9040000
  84.5049408  63.7859408  38.3370000  84.6659408  63.1259408  37.6630000
  85.3689408  63.9629408  38.7110000  84.1389408  68.9709408  54.3760000
  83.4629408  68.4299408  53.9690000  84.9209408  68.4189408  54.3760000
  85.2609408  62.5219408  45.1500000  86.1599408  62.1979408  45.2140000
  85.1129408  62.6349408  44.2110000  78.3969408  61.7669408  34.5070000
  78.1719408  61.0319408  35.0770000  79.3529408  61.8069408  34.5340000
  83.0929408  64.5809408  56.6170000  83.7929408  64.1529408  56.1250000
  82.4559408  64.8409408  55.9520000  73.7059408  60.8079408  58.7940000
  72.8089408  60.6749408  59.0990000  74.2449408  60.6919408  59.5770000
  79.5519408  73.4549408  59.3200000  79.6209408  72.9329408  60.1200000
  79.9389408  72.9039408  58.6400000  84.1129408  61.7349408  58.1150000
  84.7809408  61.4299408  57.5010000  84.4059408  62.6089408  58.3730000
  60.6829408  64.4809408  56.5800000  60.8219408  64.3349408  55.6450000
  60.8769408  65.4089408  56.7100000  87.0089408  67.7539408  50.9100000
  87.1639408  67.5669408  51.8360000  86.1749408  67.3249408  50.7160000
  65.1829408  75.2449408  58.7310000  65.2499408  74.6459408  57.9880000
  66.0909408  75.4169408  58.9820000  82.1869408  67.3489408  53.2340000
  82.6329408  67.2299408  52.3960000  81.9849408  66.4599408  53.5270000
  61.7139408  64.7479408  34.2270000  61.3929408  64.3309408  33.4270000
  61.0859408  64.4889408  34.9010000  78.6329408  63.7929408  57.6990000
  79.4459408  63.2949408  57.6140000  78.5859408  64.0199408  58.6280000
  62.5169408  63.7909408  58.9940000  62.3399408  64.7299408  59.0370000
  62.0049408  63.4829408  58.2460000  83.0969408  67.0939408  50.7320000
  83.5719408  67.7899408  50.2780000  83.5829408  66.2959408  50.5220000
  84.1139408  63.7159408  51.1230000  84.5879408  64.4759408  50.7840000
  84.5419408  63.5189408  51.9560000  65.4609408  74.3169408  56.1370000
  64.8509408  73.6819408  55.7600000  66.2679408  73.8219408  56.2740000
  66.1759408  63.6459408  53.8610000  67.0319408  63.4339408  54.2340000
  65.6269408  63.8449408  54.6190000  76.2369408  62.5929408  37.0360000
  76.4979408  61.7169408  36.7530000  77.0569408  63.0199408  37.2820000
  81.1139408  62.1109408  34.7390000  81.1109408  62.6599408  35.5240000
  81.5609408  62.6399408  34.0780000  85.2289408  63.2469408  42.4100000
  84.8559408  62.6399408  41.7710000  86.0849408  63.4789408  42.0500000
  87.3569408  61.1799408  36.2670000  87.6309408  61.6629408  35.4870000
  88.0139408  60.4909408  36.3660000  72.2699408  76.4249408  58.7760000
  72.9509408  77.0969408  58.8060000  72.4539408  75.9319408  57.9760000
  60.1289408  60.2789408  36.1440000  60.1339408  60.2069408  35.1890000
  60.6739408  59.5509408  36.4420000  77.8029408  61.4979408  32.0150000
  77.8179408  61.3079408  32.9530000  77.9959408  60.6579408  31.5970000
  67.8459408  64.6539408  58.8310000  68.2209408  64.7389408  59.7070000
  67.3629408  63.8279408  58.8550000  81.0919408  62.8469408  57.7180000
  81.6289408  62.2659408  58.2570000  81.7059408  63.5029408  57.3870000
  89.7389408  61.2499408  52.7270000  89.9719408  60.5979408  52.0660000
  88.7969408  61.1349408  52.8560000  86.4009408  70.1289408  59.6700000
  86.3809408  70.6799408  60.4520000  86.2529408  70.7369408  58.9450000
  86.6279408  65.1689408  60.1560000  85.8039408  64.7719408  59.8740000
  86.6229408  66.0389408  59.7570000  86.1169408  60.6769408  56.5390000
  85.8869408  60.0879408  55.8210000  86.9099408  60.2969408  56.9170000
  63.7959408  62.6399408  31.5360000  63.1589408  63.0979408  30.9870000
  63.2689408  62.0539408  32.0780000  76.8359408  61.2099408  57.0900000
  77.4759408  60.5949408  57.4500000  77.1229408  62.0669408  57.4050000
  83.9579408  61.6669408  53.3620000  83.0839408  61.9459408  53.6370000
  84.0009408  60.7409408  53.6010000  82.3159408  60.6029408  30.0200000
  82.8489408  60.3259408  30.7650000  82.9519408  60.8169408  29.3370000
  60.8689408  66.2169408  30.9050000  61.1979408  66.6709408  30.1290000
  61.6129408  66.1979408  31.5060000  64.1209408  73.6749408  73.7610000
  64.0209408  74.4239408  74.3480000  64.6659408  73.0579408  74.2490000
  81.1249408  61.1489408  81.7350000  80.9649408  60.2999408  81.3230000
  81.6349408  61.6379408  81.0890000  66.7109408  78.7099408  81.4700000
  66.3839408  79.3649408  82.0880000  67.6529408  78.8729408  81.4250000
  71.8849408  71.9679408  72.0810000  71.2899408  71.2449408  72.2800000
  72.7569408  71.5759408  72.1090000  65.8789408  66.9689408  68.7010000
  65.4139408  66.1719408  68.4480000  65.9029408  67.4959408  67.9020000
  75.1049408  77.8279408  75.6050000  74.2939408  77.6459408  75.1300000
  75.7899408  77.7719408  74.9380000  60.6359408  74.0729408  68.5360000
  59.8129408  74.3929408  68.1640000  60.9089408  73.3719408  67.9450000
  78.8559408  78.6129408  69.2840000  78.4689408  78.1719408  70.0410000
  78.1489408  79.1559408  68.9360000  69.0639408  68.6819408  77.8260000
  68.4579408  68.2489408  78.4280000  69.3939408  67.9759408  77.2700000
  71.2259408  71.3479408  65.7040000  70.6419408  71.7979408  66.3140000
  71.6789408  70.6969408  66.2400000  77.4669408  75.2269408  77.9080000
  77.9479408  75.1439408  78.7320000  78.1319408  75.1079408  77.2300000
  82.0799408  69.5039408  66.3360000  81.9909408  69.7379408  65.4120000
  82.7389408  70.1109408  66.6740000  65.6149408  73.6859408  68.9500000
  65.7649408  73.7169408  69.8950000  64.7539408  74.0859408  68.8300000
  89.3079408  78.9599408  75.2020000  89.6479408  79.5329408  75.8900000
  89.8979408  79.0979408  74.4610000  72.9309408  85.5519408  74.1980000
  73.8639408  85.3599408  74.1090000  72.5239408  85.1209408  73.4470000
  88.0369408  65.5629408  65.5490000  87.0969408  65.6829408  65.4130000
  88.2159408  64.6789408  65.2300000  70.6849408  75.9839408  66.6650000
  71.1339408  76.8249408  66.7490000  69.8769408  76.0929408  67.1670000
  88.7999408  69.9389408  75.7730000  87.8609408  69.9999408  75.5990000
  88.8569408  69.5959408  76.6650000  77.9779408  74.4559408  70.6650000
  77.2519408  74.3639408  70.0480000  77.7039408  73.9559408  71.4340000
  73.5299408  74.6779408  60.5350000  72.9009408  73.9769408  60.7060000
  73.0779408  75.2629408  59.9270000  76.9329408  82.0279408  73.3670000
  77.2779408  82.9039408  73.1980000  77.6629408  81.4399408  73.1730000
  71.7599408  83.1179408  68.5430000  71.6899408  83.8819408  67.9720000
  72.0759408  82.4179408  67.9710000  61.5889408  67.8679408  65.1380000
  61.9129408  67.0799408  64.7030000  62.3749408  68.2939408  65.4810000
  64.3779408  61.6949408  76.6380000  63.4469408  61.8319408  76.4640000
  64.7679408  61.5709408  75.7730000  71.0189408  62.1809408  78.1460000
  70.7569408  63.1019408  78.1390000  71.6919408  62.1279408  78.8240000
  75.1549408  60.6799408  68.8720000  74.7649408  61.4279408  68.4200000
  75.0899408  59.9599408  68.2450000  75.4189408  74.0349408  73.0950000
  74.8099408  73.9809408  73.8320000  74.8679408  74.2559408  72.3440000
  66.8749408  86.9259408  69.7580000  67.0919408  87.8089408  70.0560000
  67.0169408  86.9499408  68.8120000  68.3539408  66.3839408  63.5020000
  69.0179408  66.9059408  63.0520000  67.9879408  66.9769408  64.1590000
  84.3849408  69.4109408  77.3650000  84.7209408  68.5179408  77.2950000
  84.2909408  69.5589408  78.3060000  67.7939408  73.7699408  67.0920000
  67.1589408  73.5089408  67.7590000  68.3649408  73.0079408  66.9930000
  69.0859408  62.8069408  72.3010000  69.2659408  63.2629408  71.4790000
  69.7729408  63.1059408  72.8980000  75.8509408  73.9929408  69.0110000
  75.1649408  74.5659408  68.6690000  75.4019408  73.1709408  69.2080000
  67.6489408  77.3009408  72.5020000  67.1329408  77.8939408  73.0490000
  67.6139408  76.4609408  72.9600000  82.4549408  63.6049408  62.6640000
  81.6819408  63.5749408  62.1000000  82.7979408  64.4919408  62.5530000
  81.2289408  80.5009408  74.9470000  80.8759408  81.0379408  75.6570000
  81.9479408  81.0209408  74.5870000  71.1919408  86.2969408  61.5580000
  71.2509408  87.2469408  61.6600000  71.6389408  85.9449408  62.3270000
  64.6869408  63.6109408  72.3470000  63.8339408  63.9499408  72.0730000
  65.2309408  64.3909408  72.4540000  71.3659408  80.8169408  72.9800000
  71.3449408  81.5859408  72.4090000  72.2869408  80.5579408  72.9990000
  75.5709408  64.5019408  83.2080000  76.1229408  65.1429408  82.7600000
  75.2669408  63.9189408  82.5130000  74.5329408  79.5259408  67.8070000
  74.0209408  78.9609408  68.3850000  73.9069408  80.1799408  67.4950000
  64.9169408  74.0799408  66.0540000  65.2429408  73.2809408  66.4690000
  64.3959408  74.5079408  66.7330000  71.9419408  64.9309408  78.4310000
  72.8109408  65.3169408  78.3240000  71.7659408  64.9919408  79.3700000
  69.3909408  65.9979408  73.5600000  68.4679408  65.8209408  73.7410000
  69.5449408  65.6099408  72.6990000  66.4589408  79.0469408  74.2110000
  65.7969408  78.9559408  74.8960000  67.0899408  79.6709408  74.5690000
  72.7269408  64.7419408  73.0350000  73.5559408  64.2759408  72.9230000
  72.3699408  64.4009408  73.8560000  70.9189408  75.5149408  71.9010000
  70.0709408  75.1079408  71.7250000  70.7289408  76.4519408  71.9560000
  71.2779408  68.6519408  69.3500000  71.3409408  67.9429408  69.9910000
  70.6729408  69.2789408  69.7440000  75.6899408  78.6069408  64.5490000
  75.8669408  78.6029408  63.6090000  76.2479408  77.9129408  64.9010000
  66.0069408  60.8799408  64.4630000  66.8559408  60.4709408  64.2940000
  66.1609408  61.8149408  64.3310000  69.4119408  68.7209408  66.5640000
  69.9009408  68.4549408  67.3430000  70.0189408  69.2819408  66.0810000
  70.9679408  78.3959408  75.9660000  71.6029408  77.8829408  75.4660000
  70.1389408  77.9329408  75.8490000  69.0729408  70.0809408  69.9790000
  69.3089408  70.3209408  70.8750000  68.1399408  69.8699408  70.0250000
  72.1909408  63.0269408  66.6490000  72.5829408  63.5069408  67.3790000
  72.8259408  62.3399408  66.4440000  62.7639408  70.3209408  75.9390000
  62.1979408  70.7929408  75.3280000  62.1579408  69.8679408  76.5260000
  63.7929408  65.9289408  78.5460000  64.5359408  65.3939408  78.2680000
  63.0419408  65.5539408  78.0850000  67.2649408  65.4869408  70.7700000
  66.6499408  66.0649408  70.3180000  67.6409408  64.9459408  70.0760000
  64.4899408  64.3149408  68.6110000  63.8189408  63.6769408  68.8510000
  64.7519408  64.0669408  67.7250000  78.2059408  71.1969408  71.0920000
  78.7899408  71.1579408  70.3350000  77.3289408  71.0939408  70.7250000
  72.6159408  62.7419408  62.6460000  72.2479408  63.1119408  61.8440000
  73.2749408  63.3789408  62.9240000  63.9959408  70.0319408  79.2360000
  64.7059408  69.4889408  78.8920000  64.1359408  70.8909408  78.8370000
  73.6049408  69.6929408  63.1680000  74.0819408  68.9459408  63.5280000
  74.2209408  70.4239408  63.2310000  70.6809408  71.2849408  60.4750000
  70.9629408  71.9649408  59.8630000  70.5939408  71.7389408  61.3140000
  75.6389408  66.6119408  68.9870000  75.6199408  66.6119408  69.9440000
  76.5409408  66.8459408  68.7660000  76.1629408  80.3279408  69.8410000
  75.8969408  80.1039408  68.9500000  75.7949408  79.6309408  70.3840000
  78.8369408  79.6889408  73.6890000  79.6529408  79.8079408  74.1740000
  79.0429408  79.9709408  72.7980000  67.3569408  74.9479408  74.1060000
  66.7409408  74.6609408  74.7800000  67.7119408  74.1349408  73.7450000
  82.1589408  71.9809408  68.6940000  82.2029408  72.9319408  68.6020000
  82.8179408  71.6489408  68.0840000  61.5759408  61.8369408  72.3790000
  61.6699408  61.3979408  71.5340000  61.7809408  62.7539408  72.1980000
  69.7979408  73.5629408  80.7020000  69.9119408  72.6129408  80.6900000
  70.2249408  73.8659408  79.9000000  72.6309408  73.1459408  74.3340000
  72.2629408  73.3379408  73.4710000  72.9819408  72.2589408  74.2530000
  70.1429408  68.5439408  62.9460000  70.7999408  68.6049408  62.2530000
  70.5939408  68.8529408  63.7320000  64.7069408  75.4199408  83.1280000
  64.5639408  75.8999408  82.3120000  64.9709408  76.0909408  83.7570000
  62.9149408  76.4549408  74.3630000  63.5279408  77.1049408  74.7050000
  62.2449408  76.3749408  75.0420000  69.9729408  61.6209408  69.1660000
  70.8859408  61.7839408  68.9290000  70.0159408  61.2549408  70.0490000
  72.5159408  69.3919408  67.0440000  72.9239408  68.9559408  66.2950000
  72.6179408  68.7729408  67.7670000  80.6819408  74.5549408  70.8580000
  80.4699408  74.9719408  71.6930000  79.8309408  74.3559408  70.4670000
  65.0659408  72.1979408  78.1450000  65.8319408  71.7159408  77.8330000
  64.6889408  72.5859408  77.3550000  64.4699408  66.9909408  81.0950000
  64.3759408  66.7169408  80.1820000  64.4599408  67.9469408  81.0610000
  76.7989408  68.8369408  81.9130000  76.1259408  68.2629408  81.5470000
  77.3839408  68.2479408  82.3890000  77.3339408  61.3149408  77.3720000
  77.1459408  62.1649408  77.7700000  76.5919408  60.7639408  77.6200000
  64.3569408  84.6489408  73.1330000  65.1819408  85.0809408  72.9100000
  63.8739408  85.2999408  73.6410000  66.0859408  74.8579408  71.4430000
  65.4669408  75.3769408  70.9300000  65.9959408  75.1919408  72.3360000
  73.4409408  76.1729408  68.5040000  73.3789408  75.9409408  67.5780000
  72.7799408  76.8539408  68.6260000  68.5019408  64.1379408  68.6120000
  68.8629408  64.4539408  67.7840000  68.9809408  63.3279408  68.7890000
  69.2219408  89.9579408  79.5540000  69.1209408  89.3189408  78.8490000
  69.7729408  90.6449408  79.1780000  65.8979408  86.1729408  75.7840000
  64.9769408  86.4009408  75.6590000  66.2559408  86.1269408  74.8980000
  64.1719408  68.0399408  66.5580000  63.5999408  68.3309408  67.2680000
  64.3229408  68.8259408  66.0330000  80.9309408  68.1219408  77.8530000
  80.4899408  68.4399408  78.6410000  81.2959408  68.9089408  77.4480000
  63.5469408  89.1949408  74.3880000  63.4529408  88.7309408  73.5560000
  64.0779408  89.9629408  74.1760000  67.6459408  75.5889408  60.5610000
  68.1379408  74.9059408  61.0160000  68.1499408  76.3889408  60.7110000
  69.7719408  62.8839408  65.6410000  70.6209408  62.7349408  66.0590000
  69.7999408  62.3549408  64.8440000  69.0259408  76.3989408  75.6100000
  68.7289408  76.0099408  76.4320000  68.4029408  76.0809408  74.9560000
  84.9449408  70.7089408  82.4340000  84.4059408  70.1399408  82.9830000
  84.3479408  71.3989408  82.1430000  72.9919408  66.0789408  80.9050000
  73.2669408  66.9929408  80.8340000  73.4549408  65.7489408  81.6750000
  89.0709408  62.3679408  73.5800000  89.1899408  62.7229408  74.4610000
  89.9599408  62.2269408  73.2550000  75.3469408  67.8619408  73.5700000
  75.5059408  67.1419408  72.9600000  76.2199408  68.1279408  73.8590000
  73.9419408  87.7469408  71.2050000  73.6119408  87.6369408  72.0970000
  73.2129408  88.1429408  70.7270000  62.4759408  73.4329408  71.5170000
  62.9669408  73.3179408  72.3310000  62.3929408  74.3819408  71.4200000
  64.0809408  70.9719408  70.1910000  63.3579408  71.5829408  70.3280000
  64.6869408  71.1519408  70.9110000  62.4699408  62.2689408  69.4860000
  61.9209408  63.0069408  69.2190000  61.8819408  61.5139408  69.4670000
  63.0199408  76.0899408  71.5960000  62.9749408  76.1599408  72.5500000
  63.1089408  76.9939408  71.2930000  72.5739408  74.1909408  76.7410000
  72.6879408  73.7449408  75.9010000  73.3929408  74.6689408  76.8720000
  69.4949408  75.9309408  63.8740000  69.7659408  75.7989408  64.7830000
  69.9059408  76.7569408  63.6190000  68.0449408  78.2839408  77.2700000
  67.8129408  77.5769408  77.8720000  68.2419408  77.8409408  76.4450000
  68.0199408  61.0509408  74.0630000  68.1869408  61.8039408  73.4960000
  68.5849408  61.1939408  74.8240000  72.3299408  83.4389408  64.0320000
  71.5709408  82.9229408  63.7610000  73.0749408  83.0059408  63.6160000
  62.1229408  82.1309408  77.8600000  62.8419408  81.8089408  77.3180000
  62.3069408  83.0629408  77.9750000  78.9909408  68.3469408  65.9690000
  79.9089408  68.3779408  66.2400000  78.8449408  67.4349408  65.7200000
  65.8029408  76.0779408  64.3120000  66.5949408  75.6419408  63.9980000
  65.6179408  75.6609408  65.1540000  75.6349408  71.6509408  63.7230000
  76.4549408  71.1739408  63.8460000  75.4639408  72.0589408  64.5730000
  73.6209408  75.0579408  71.2560000  72.8359408  75.3699408  71.7060000
  73.5009408  75.3309408  70.3470000  66.7349408  70.4089408  76.9120000
  67.6709408  70.2119408  76.8740000  66.3309408  69.5979408  77.2210000
  69.1019408  79.7299408  82.1000000  69.8669408  79.3959408  81.6300000
  69.3469408  80.6199408  82.3550000  68.8879408  80.4159408  61.5990000
  68.2829408  79.7779408  61.9770000  68.7719408  81.2019408  62.1330000
  73.4439408  60.5639408  65.1250000  74.2609408  60.5429408  65.6220000
  73.7179408  60.5099408  64.2090000  68.1309408  77.3219408  69.6840000
  68.1119408  78.2399408  69.4110000  67.9969408  77.3509408  70.6310000
  71.8609408  68.8709408  60.8180000  71.4729408  69.7019408  60.5460000
  72.8049408  69.0259408  60.7920000  74.0549408  80.7059408  79.8650000
  73.1819408  80.5199408  80.2090000  74.1139408  80.1809408  79.0660000
  68.7819408  74.8269408  70.5120000  67.8989408  74.6719408  70.8490000
  68.7299408  75.6859408  70.0920000  85.7759408  75.5769408  75.5950000
  86.5949408  75.4519408  75.1160000  85.8309408  74.9639408  76.3280000
  74.7319408  65.0299408  66.7360000  75.2879408  64.2539408  66.6670000
  75.2679408  65.6689408  67.2060000  74.8019408  75.4929408  76.8610000
  74.9129408  76.3009408  76.3600000  75.6729408  75.3059408  77.2110000
  87.4529408  72.4809408  72.6510000  86.9679408  71.6609408  72.7380000
  88.3159408  72.2169408  72.3320000  79.8039408  70.9529408  68.8190000
  80.7069408  71.2619408  68.7410000  79.2889408  71.5889408  68.3220000
  73.6759408  72.0399408  68.3110000  72.9579408  72.4469408  68.7970000
  73.3909408  71.1369408  68.1740000  64.4319408  59.9699408  69.1520000
  64.9539408  60.3289408  69.8690000  63.7079408  60.5879408  69.0490000
  63.1979408  75.2869408  67.9950000  62.5999408  75.4139408  67.2590000
  62.7259408  74.7069408  68.5910000  73.4919408  70.2479408  75.4210000
  74.1179408  70.9619408  75.5410000  74.0109408  69.5349408  75.0460000
  88.8019408  66.7519408  75.1170000  88.5949408  66.3399408  74.2790000
  87.9779408  67.1509408  75.3980000  66.3509408  72.5299408  80.8020000
  65.7639408  72.6359408  80.0530000  66.8079408  73.3679408  80.8690000
  62.1939408  62.4329408  75.0200000  61.9859408  62.0149408  74.1840000
  62.7589408  63.1699408  74.7850000  80.3539408  61.1919408  74.3940000
  81.2449408  61.0649408  74.0680000  80.3279408  62.1089408  74.6690000
  72.9529408  78.1909408  64.7110000  72.8259408  78.4779408  65.6150000
  73.8859408  78.3269408  64.5450000  71.2079408  73.2309408  69.6310000
  71.4929408  73.1859408  70.5430000  70.4689408  73.8389408  69.6400000
  65.2889408  76.5969408  61.2440000  66.1979408  76.4009408  61.4730000
  65.0949408  76.0109408  60.5130000  65.9609408  61.2959408  70.8390000
  66.7089408  61.8909408  70.8830000  65.2019408  61.8499408  71.0230000
  74.0369408  69.3019408  70.0320000  73.0859408  69.2279408  69.9500000
  74.3769408  68.5189408  69.5980000  73.8409408  75.9929408  79.9150000
  73.3829408  75.6059408  79.1690000  74.1529408  76.8389408  79.5910000
  77.9259408  73.8949408  74.1400000  76.9729408  73.9149408  74.2200000
  78.2449408  74.1439408  75.0080000  77.9639408  64.7779408  60.3340000
  77.0519408  65.0459408  60.4500000  78.1979408  64.3589408  61.1630000
  66.0819408  71.7559408  63.1260000  65.2619408  72.2489408  63.0890000
  66.7199408  72.3779408  63.4750000  80.7849408  71.9599408  77.6010000
  81.3309408  71.2469408  77.2700000  80.9109408  72.6709408  76.9720000
  76.0959408  70.7469408  69.5820000  75.3069408  70.3579408  69.9590000
  76.3329408  70.1619408  68.8630000  71.8799408  71.9409408  63.1400000
  71.5959408  71.9629408  64.0530000  72.2839408  71.0799408  63.0340000
  70.6029408  78.1769408  72.3180000  69.6709408  78.0139408  72.4610000
  70.6839408  79.1309408  72.3230000  76.8019408  80.5669408  75.9690000
  77.5409408  79.9729408  75.8380000  76.7199408  81.0359408  75.1380000
  66.3819408  63.8779408  66.2780000  66.8239408  64.1609408  67.0780000
  66.7769408  64.4079408  65.5850000  77.8219408  70.6709408  84.7140000
  77.0509408  70.2079408  84.3860000  78.5589408  70.2549408  84.2680000
  87.1529408  73.0869408  76.5300000  87.5009408  72.5009408  77.2020000
  86.4709408  72.5749408  76.0950000  88.4819408  70.9349408  69.6410000
  88.8959408  71.1749408  70.4700000  88.9019408  71.4979408  68.9910000
  74.8989408  86.5689408  68.8670000  74.8359408  86.8249408  69.7880000
  74.8469408  85.6129408  68.8800000  66.4319408  69.2409408  69.6680000
  65.6539408  69.7959408  69.6110000  66.1929408  68.4429408  69.1960000
  77.9739408  70.1959408  64.3400000  78.5639408  70.9399408  64.4650000
  78.2259408  69.5729408  65.0210000  74.5639408  71.3319408  72.5050000
  75.3129408  71.9219408  72.4160000  74.8419408  70.5249408  72.0710000
  65.8949408  79.3489408  70.4970000  65.2319408  79.5939408  71.1420000
  65.4229408  78.8129408  69.8600000  70.5329408  64.8369408  71.0850000
  70.4469408  65.5079408  70.4070000  71.3799408  65.0149408  71.4930000
  68.3729408  83.4639408  73.1860000  69.1639408  83.9339408  72.9220000
  67.6539408  83.9979408  72.8490000  68.0019408  73.8009408  64.2870000
  68.6839408  74.4149408  64.0160000  67.9259408  73.9279408  65.2330000
  68.5919408  80.0079408  71.6570000  67.6919408  79.6829408  71.6220000
  68.5009408  80.9549408  71.7650000  68.5059408  89.5499408  64.7200000
  69.2599408  89.8159408  64.1930000  68.6619408  89.9459408  65.5770000
  77.8569408  65.7969408  66.3200000  78.7739408  65.6119408  66.1180000
  77.3679408  65.4069408  65.5960000  84.8209408  67.4299408  68.6100000
  84.9309408  66.7309408  67.9650000  85.4989408  68.0679408  68.3900000
  69.6499408  71.8419408  67.8760000  70.4039408  72.2779408  68.2730000
  69.2779408  71.3139408  68.5820000  77.8409408  71.3329408  81.0730000
  77.5779408  70.4969408  81.4570000  77.0239408  71.8229408  80.9800000
  76.4069408  63.6289408  79.0480000  77.1099408  64.2789408  79.0450000
  76.1969408  63.5069408  79.9740000  71.6449408  68.1269408  83.6070000
  71.9199408  67.4939408  84.2710000  71.9309408  68.9729408  83.9510000
  78.3389408  68.6359408  77.0160000  78.1949408  69.4509408  77.4970000
  79.2549408  68.4159408  77.1850000  67.8239408  69.7049408  61.9020000
  68.6989408  69.3949408  62.1340000  67.3699408  69.7939408  62.7400000
  73.4879408  68.3599408  77.7820000  72.5719408  68.4729408  78.0380000
  73.7179408  69.1799408  77.3450000  65.3919408  69.8369408  81.5440000
  64.4879408  70.0839408  81.7380000  65.8819408  70.6569408  81.5990000
  75.6989408  73.6459408  81.5090000  74.9289408  74.2119408  81.4530000
  75.7449408  73.3939408  82.4310000  65.3759408  65.8509408  64.5400000
  65.9379408  66.5929408  64.3170000  65.1269408  66.0039408  65.4520000
  81.4999408  80.8909408  81.6630000  81.5299408  81.8449408  81.5890000
  81.2169408  80.5929408  80.7990000  76.1989408  72.7839408  84.3270000
  76.9519408  72.3809408  84.7590000  75.5079408  72.1229408  84.3830000
  80.3079408  72.6819408  81.5200000  79.5659408  72.7069408  82.1230000
  80.0339408  73.2229408  80.7790000  83.5869408  71.2759408  63.3410000
  82.6949408  71.6219408  63.3230000  84.1119408  71.9439408  62.9000000
  67.8799408  86.0279408  83.7110000  68.5289408  86.2299408  83.0370000
  67.0729408  85.8609408  83.2240000  78.4169408  74.7709408  80.7260000
  78.8399408  75.1919408  81.4750000  77.5249408  74.5919408  81.0240000
  74.9759408  75.1649408  83.9550000  75.6309408  75.7189408  83.5300000
  75.4869408  74.4979408  84.4130000  80.1269408  77.4139408  77.2570000
  80.8569408  78.0169408  77.1180000  80.2649408  77.0689408  78.1390000
  77.7229408  69.0149408  74.5310000  78.2079408  69.8399408  74.5330000
  77.7629408  68.7109408  75.4380000  77.0589408  64.2909408  63.6940000
  77.3229408  63.4279408  64.0130000  76.3329408  64.1129408  63.0950000
  72.1429408  73.0499408  83.4810000  72.7959408  73.1569408  82.7890000
  71.8279408  73.9369408  83.6530000  69.2999408  64.7489408  76.6790000
  68.4779408  64.7659408  76.1890000  69.0309408  64.7099408  77.5970000
  70.2849408  69.8869408  72.5980000  70.8409408  69.1149408  72.4900000
  70.1829408  69.9779408  73.5460000  88.8309408  67.2719408  62.2880000
  88.8699408  66.9779408  63.1980000  89.5399408  66.7969408  61.8530000
  77.8369408  65.8009408  78.3520000  78.7399408  65.6199408  78.0890000
  77.7859408  66.7559408  78.3950000  72.3099408  77.8379408  78.4750000
  71.5999408  77.7869408  77.8350000  72.9599408  78.4099408  78.0670000
  81.5769408  70.0929408  73.5580000  80.8019408  70.5149408  73.9290000
  81.6999408  70.5189408  72.7100000  65.6639408  68.1749408  78.2520000
  66.2629408  67.8789408  78.9380000  65.1889408  67.3859408  77.9920000
  65.9109408  66.2639408  83.1760000  65.8639408  65.3079408  83.1610000
  65.2579408  66.5469408  82.5370000  63.5549408  72.7819408  63.2750000
  62.7219408  72.4139408  63.5720000  63.4619408  73.7249408  63.4110000
  80.1159408  63.8369408  75.0270000  80.6079408  64.5009408  74.5440000
  79.2639408  63.8059408  74.5920000  69.1499408  89.6889408  82.5040000
  69.9349408  90.2339408  82.5540000  69.1679408  89.3219408  81.6200000
  69.0229408  70.0999408  83.4030000  68.3649408  70.6929408  83.7660000
  68.5369408  69.3039408  83.1870000  62.6359408  69.1879408  72.6550000
  62.1249408  69.8089408  73.1730000  61.9839408  68.6069408  72.2650000
  70.1199408  61.7629408  63.4120000  69.5699408  61.8339408  62.6310000
  70.9739408  62.0939408  63.1340000  84.7679408  66.0699408  77.1460000
  83.8289408  66.0299408  76.9640000  85.1819408  65.7409408  76.3480000
  65.1569408  71.4689408  75.1180000  64.3929408  71.0489408  75.5120000
  65.9069408  71.0229408  75.5130000  76.3049408  77.8459408  78.6500000
  76.4699408  78.5339408  78.0040000  76.6669408  77.0539408  78.2540000
  71.4229408  61.4139408  82.3640000  71.7979408  61.2949408  83.2370000
  72.1729408  61.6199408  81.8060000  64.3739408  62.0349408  82.5920000
  65.0449408  62.5869408  82.9950000  63.7539408  62.6539408  82.2080000
  67.8019408  76.5439408  67.0640000  67.6149408  75.6139408  67.1890000
  67.8329408  76.9049408  67.9500000  72.7309408  72.2139408  78.9580000
  72.2289408  71.4239408  78.7610000  72.6519408  72.7509408  78.1690000
  67.4109408  68.2469408  82.5390000  67.0039408  67.3889408  82.6570000
  66.8979408  68.6629408  81.8460000  78.8269408  63.5309408  82.3500000
  78.8589408  62.6169408  82.6340000  79.3369408  63.5479408  81.5400000
  73.0339408  74.4019408  63.2410000  73.4299408  74.6769408  62.4150000
  72.6019408  73.5729408  63.0360000  74.6579408  61.6439408  84.3280000
  75.2989408  61.5509408  85.0330000  73.8909408  62.0299408  84.7510000
  69.2199408  70.8319408  80.8010000  68.2959408  70.9889408  80.6070000
  69.2279408  70.5439408  81.7140000  68.1889408  77.1529408  83.5900000
  69.0689408  77.0679408  83.9560000  67.9749408  78.0809408  83.6910000
  67.2109408  68.0059408  65.3860000  66.6419408  68.7579408  65.5510000
  67.9689408  68.1489408  65.9520000  90.1159408  68.1649408  71.4220000
  90.1929408  67.2509408  71.1470000  89.2939408  68.4639408  71.0340000
  81.0649408  69.6399408  62.0140000  81.5329408  69.0169408  62.5690000
  81.5449408  69.6309408  61.1850000  64.8949408  78.8529408  66.4910000
  65.2919408  79.6979408  66.7040000  65.4089408  78.5259408  65.7530000
  66.9089408  64.5699408  75.4710000  66.4269408  65.1219408  74.8560000
  66.2819408  64.3849408  76.1700000  76.1519408  76.8349408  66.9130000
  75.4469408  76.5409408  66.3350000  75.7099408  77.0769408  67.7270000
  75.4429408  60.1609408  73.2290000  76.1079408  59.5109408  73.4580000
  75.5879408  60.8799408  73.8430000  84.0269408  79.3799408  81.4100000
  84.2849408  78.4959408  81.6720000  83.1719408  79.5119408  81.8210000
  74.3959408  78.1949408  70.7400000  74.3709408  78.1429408  71.6950000
  74.2869408  77.2889408  70.4480000  64.5679408  72.7609408  83.3450000
  64.5269408  73.7069408  83.4870000  64.8839408  72.6679408  82.4460000
  81.5419408  62.2789408  84.3060000  81.1949408  62.1159408  83.4290000
  81.4429408  61.4439408  84.7630000  74.6329408  83.1429408  70.1660000
  74.8209408  83.6079408  69.3500000  74.7559408  82.2189408  69.9490000
  75.3159408  72.0549408  76.3340000  74.9349408  72.8129408  76.7780000
  76.1729408  71.9419408  76.7450000  82.2929408  77.8109408  83.8080000
  82.1829408  77.0259408  84.3450000  82.7159408  78.4419408  84.3890000
  69.7159408  77.2639408  60.6440000  70.4809408  76.8889408  60.2080000
  70.0779408  77.7609408  61.3780000  67.2109408  71.8149408  84.3940000
  66.3699408  72.1359408  84.0660000  67.5599408  72.5409408  84.9100000
  60.1669408  68.8079408  80.3710000  59.8829408  68.0049408  80.8070000
  59.9809408  69.5029408  81.0020000  71.3649408  69.9299408  78.7550000
  70.7509408  69.2719408  78.4300000  71.2129408  69.9549408  79.7000000
  70.7769408  69.9669408  75.3550000  71.7099408  70.1599408  75.2610000
  70.7469408  69.1889408  75.9110000  79.8279408  75.7489408  73.0870000
  80.5869408  75.7009408  73.6680000  79.2939408  74.9909408  73.3260000
  88.4329408  61.3169408  77.7720000  88.3759408  60.3929408  78.0160000
  88.3789408  61.7879408  78.6040000  76.9629408  76.6139408  82.6300000
  76.8069408  77.5369408  82.8310000  77.8629408  76.5879408  82.3060000
  75.8339408  63.3109408  61.4930000  76.3929408  62.5349408  61.4550000
  75.4889408  63.4019408  60.6050000  60.8749408  63.4179408  83.9600000
  60.5559408  62.5409408  83.7490000  61.6379408  63.5389408  83.3940000
  73.8929408  79.7199408  77.2500000  73.8199408  80.5249408  76.7370000
  74.7049408  79.3139408  76.9450000  70.5189408  67.1779408  75.9270000
  70.5439408  66.3239408  76.3590000  70.1409408  66.9999408  75.0660000
  75.9109408  87.6449408  80.9300000  75.4609408  86.9469408  80.4540000
  75.2979408  87.8989408  81.6190000  77.6369408  90.0739408  82.6510000
  77.4279408  89.3739408  82.0330000  77.3079408  89.7569408  83.4920000
  67.9469408  67.0969408  79.7360000  67.9239408  66.1409408  79.7090000
  68.7869408  67.3059408  80.1460000  69.8299408  87.2289408  65.4010000
  68.9329408  87.4469408  65.1470000  70.3679408  87.5429408  64.6740000
  61.1219408  66.0539408  69.6410000  60.6489408  66.3209408  68.8530000
  61.9209408  66.5809408  69.6320000  71.1519408  82.9069408  80.7830000
  71.1849408  81.9589408  80.9060000  70.5209408  83.0349408  80.0740000
  71.0869408  85.7069408  67.3250000  70.8939408  86.1889408  68.1280000
  70.7599408  86.2699408  66.6230000  62.6749408  78.7829408  70.9760000
  63.1839408  79.3299408  71.5740000  63.0549408  78.9529408  70.1140000
  73.9669408  75.5319408  65.7910000  74.1179408  74.5939408  65.6770000
  73.3829408  75.7699408  65.0710000  62.1679408  64.6769408  72.0900000
  61.6919408  65.0179408  71.3330000  61.8439408  65.1909408  72.8290000
  69.7219408  88.0699408  68.6160000  69.4219408  88.0619408  67.7080000
  69.1469408  88.6979408  69.0530000  71.7279408  80.3879408  81.2710000
  71.6209408  79.5149408  80.8940000  72.3419408  80.2629408  81.9960000
  73.8599408  66.7389408  62.4700000  73.0679408  67.2019408  62.1940000
  73.5509408  66.0939408  63.1060000  64.9999408  89.5199408  78.2440000
  65.1339408  89.6689408  79.1800000  64.6149408  90.3359408  77.9240000
  70.5059408  79.8669408  66.1100000  69.8559408  79.5139408  65.5030000
  69.9949408  80.3779408  66.7380000  73.0909408  65.1259408  64.6640000
  73.6829408  65.1169408  65.4160000  72.3979408  64.5079408  64.8970000
  63.3269408  84.6049408  79.3680000  64.2059408  84.2289408  79.3230000
  63.4169408  85.4729408  78.9750000  74.2179408  80.3289408  73.1910000
  74.4609408  81.2159408  72.9250000  75.0449408  79.9189408  73.4450000
  77.6079408  81.4719408  81.4500000  77.1129408  82.1989408  81.8280000
  77.2049408  80.6879408  81.8230000  72.8429408  84.9729408  81.9030000
  72.4879408  84.2539408  81.3800000  73.3269408  85.5089408  81.2750000
  64.6779408  82.4899408  76.5850000  65.2769408  83.2359408  76.6160000
  65.2109408  81.7439408  76.8610000  77.4849408  87.6719408  67.7400000
  76.6389408  87.2889408  67.9700000  77.8719408  87.0489408  67.1250000
  74.3059408  88.7819408  67.3720000  74.7559408  88.1469408  67.9280000
  73.9669408  88.2639408  66.6420000  84.3189408  84.7159408  74.1060000
  84.8969408  83.9829408  73.8980000  84.5489408  85.3919408  73.4680000
  76.4369408  79.0669408  81.2430000  76.5039408  78.3559408  80.6060000
  75.6939408  79.5899408  80.9420000  70.3759408  83.4779408  77.1180000
  69.6279408  83.2069408  77.6500000  70.5139408  82.7509408  76.5100000
  75.4449408  85.1009408  74.0140000  76.2459408  85.2109408  73.5020000
  75.0809408  84.2679408  73.7140000  69.1669408  65.4379408  65.7480000
  68.8509408  65.6709408  64.8750000  69.4189408  64.5179408  65.6750000
  64.2729408  80.1469408  72.5690000  63.8439408  80.9559408  72.8460000
  65.0339408  80.0699408  73.1450000  63.2469408  75.4839408  63.2100000
  63.6359408  76.1419408  62.6340000  63.7999408  75.4919408  63.9910000
  64.1789408  77.7809408  68.9290000  64.2309408  78.1619408  68.0530000
  63.5919408  77.0319408  68.8310000  71.1639408  89.3629408  74.0990000
  71.9599408  89.0219408  74.5070000  70.8289408  90.0059408  74.7250000
  71.2709408  89.4239408  60.7540000  71.1439408  89.1009408  59.8620000
  70.7259408  90.2099408  60.8040000  70.1639408  74.3359408  77.9330000
  69.7059408  73.4989408  77.8530000  70.9369408  74.2409408  77.3770000
  66.9129408  86.0559408  73.0170000  66.7609408  86.9919408  73.1450000
  67.8609408  85.9539408  73.1010000  69.9689408  85.5049408  71.5150000
  70.0609408  86.2039408  72.1630000  69.5309408  85.9229408  70.7730000
  70.9059408  82.2719408  61.9450000  70.8709408  81.3879408  61.5790000
  70.4339408  82.8129408  61.3120000  75.8529408  83.8829408  67.9390000
  75.9139408  83.7729408  66.9900000  76.7569408  84.0099408  68.2250000
  67.6779408  75.6369408  78.2270000  67.3809408  75.6059408  79.1360000
  68.4549408  75.0779408  78.2080000  64.3649408  82.5619408  70.9050000
  63.8259408  83.0119408  71.5560000  65.0559408  83.1889408  70.6910000
  71.6299408  83.2589408  71.2250000  71.9139408  83.2529408  70.3110000
  70.9499408  83.9319408  71.2610000  63.3079408  82.3489408  74.1740000
  63.6449408  83.1049408  73.6930000  63.8179408  82.3319408  74.9840000
  80.0859408  63.0319408  61.4180000  80.4329408  62.3479408  60.8450000
  79.2249408  62.7079408  61.6830000  88.1769408  62.4219408  80.1510000
  87.3749408  62.2089408  80.6290000  88.4289408  63.2859408  80.4760000
  79.2209408  88.9019408  69.3070000  78.6819408  89.2899408  69.9960000
  78.5979408  88.6619408  68.6210000  60.7819408  76.6869408  75.9170000
  60.1779408  76.2529408  76.5200000  60.3069408  77.4619408  75.6180000
  66.7389408  84.1779408  69.9850000  66.8389408  85.0859408  70.2700000
  66.8689408  84.2079408  69.0370000  70.4329408  61.4439408  75.7220000
  70.5989408  61.4719408  76.6650000  70.7079408  62.3039408  75.4050000
  63.3309408  79.3729408  78.2010000  62.4419408  79.5659408  78.5000000
  63.8949408  79.6769408  78.9110000  86.3379408  68.5209408  74.7070000
  85.9319408  69.3879408  74.7270000  85.5999408  67.9109408  74.7000000
  63.1059408  81.9459408  68.1800000  63.4189408  82.7029408  68.6760000
  62.1519408  82.0229408  68.2010000  75.4369408  83.2539408  80.0090000
  76.0059408  83.1119408  79.2530000  75.0009408  82.4129408  80.1430000
  67.0619408  81.4499408  69.2770000  67.2629408  82.2119408  69.8210000
  66.5489408  80.8769408  69.8470000  72.0659408  88.8869408  69.7040000
  71.2279408  88.5389408  69.3980000  72.5209408  89.1529408  68.9050000
  71.2699408  86.0949408  76.5260000  71.8939408  86.0249408  75.8040000
  71.2699408  85.2259408  76.9290000  70.8659408  78.4719408  62.7640000
  70.6719408  79.4039408  62.8690000  71.5619408  78.2989408  63.3990000
  73.6439408  60.4429408  61.8470000  72.8629408  60.2199408  61.3410000
  73.6489408  61.3999408  61.8730000  63.1739408  60.5829408  64.5740000
  64.1289408  60.6499408  64.5680000  62.8779408  61.4079408  64.9580000
  69.4209408  81.4549408  67.9740000  68.8169408  81.4819408  68.7160000
  70.2109408  81.8929408  68.2920000  69.8059408  75.8759408  81.7940000
  68.8959408  76.1509408  81.9020000  69.7489408  74.9669408  81.5000000
  67.9939408  81.3219408  74.6600000  68.8919408  81.3319408  74.9910000
  67.9779408  82.0019408  73.9870000  84.4759408  80.8279408  79.0240000
  85.3199408  81.0919408  78.6570000  84.7019408  80.2359408  79.7420000
  72.9509408  61.3049408  72.5350000  73.5739408  60.6049408  72.7320000
  72.1069408  60.9639408  72.8300000  73.2739408  86.0209408  65.5640000
  73.0779408  85.8549408  66.4860000  72.5129408  85.6839408  65.0920000
  73.9679408  83.1959408  72.7510000  73.0609408  83.1179408  72.4530000
  74.4749408  83.3119408  71.9480000  67.9659408  83.2009408  84.6000000
  68.6309408  82.7009408  84.1270000  67.9549408  84.0549408  84.1660000
  88.8189408  88.9629408  79.5480000  89.3499408  88.7979408  80.3270000
  87.9169408  88.8389408  79.8420000  67.1999408  62.1849408  79.7970000
  67.7519408  61.4189408  79.6400000  66.4489408  61.8439408  80.2840000
  76.6659408  72.2829408  61.1970000  76.1439408  73.0379408  60.9240000
  76.2319408  71.9649408  61.9890000  71.4439408  75.8639408  83.9440000
  72.0879408  76.3889408  83.4680000  70.7859408  75.6379408  83.2870000
  74.5009408  72.8519408  65.8720000  74.3729408  72.6739408  66.8040000
  73.6179408  72.8409408  65.5020000  70.8959408  79.7499408  69.9370000
  70.1039408  79.8069408  70.4710000  71.6099408  79.9329408  70.5480000
  66.7689408  88.4729408  74.2330000  67.3599408  89.2059408  74.4070000
  65.9639408  88.6979408  74.6990000  87.3529408  60.3099408  72.8330000
  87.5099408  59.6729408  73.5300000  87.9369408  61.0399408  73.0390000
  72.1129408  78.3489408  67.7370000  71.7449408  78.5769408  68.5910000
  71.5649408  78.8179408  67.1070000  84.6629408  79.5749408  72.4850000
  84.9049408  78.8659408  73.0800000  84.1909408  79.1409408  71.7740000
  61.4539408  89.7109408  75.8930000  61.4329408  90.6619408  76.0040000
  62.2849408  89.5399408  75.4500000  66.8329408  80.5419408  77.8900000
  67.4509408  79.8449408  77.6710000  66.2749408  80.1639408  78.5700000
  68.3579408  64.1779408  61.8600000  68.4489408  64.8209408  62.5630000
  67.5369408  63.7239408  62.0540000  71.2019408  88.7629408  63.4690000
  71.2119408  89.5939408  63.9450000  71.6049408  88.9659408  62.6240000
  66.1329408  83.5059408  80.1000000  66.3269408  83.2889408  79.1880000
  66.9599408  83.8419408  80.4480000  70.2109408  88.4339408  71.9620000
  71.0079408  88.2959408  71.4500000  70.5229408  88.6039408  72.8510000
  85.9239408  82.7609408  73.2040000  85.7279408  82.7439408  72.2670000
  86.0819408  81.8459408  73.4340000  79.3099408  86.6769408  74.0320000
  79.6109408  86.8749408  74.9190000  79.3619408  85.7229408  73.9680000
  63.3539408  84.7089408  69.0660000  63.7559408  85.5449408  69.3010000
  62.5179408  84.9489408  68.6650000  89.6089408  87.8679408  75.3230000
  90.1049408  87.1339408  74.9590000  90.2649408  88.5469408  75.4810000
  61.5119408  79.0599408  73.6060000  60.8219408  79.4449408  73.0660000
  62.0049408  78.5029408  73.0030000  63.9449408  86.8669408  78.1460000
  63.7629408  86.8199408  77.2080000  64.4529408  87.6719408  78.2510000
  73.2799408  82.0519408  75.6120000  72.3279408  81.9589408  75.6370000
  73.5199408  81.8259408  74.7140000  72.9559408  81.3659408  66.3640000
  73.4859408  81.8059408  65.6990000  72.4029408  80.7609408  65.8690000
  63.4409408  66.1809408  61.9050000  64.0029408  66.8479408  61.5100000
  63.9759408  65.7989408  62.6010000  78.2589408  72.5979408  67.4360000
  77.7069408  71.9699408  66.9700000  77.6589408  73.0499408  68.0290000
  60.1369408  63.5589408  65.8370000  59.9919408  62.6449408  65.5950000
  60.0729408  63.5669408  66.7920000  86.3759408  83.1479408  82.1470000
  85.9069408  83.8409408  81.6830000  87.2419408  83.1299408  81.7400000
  72.6159408  82.0489408  84.5270000  72.7129408  81.7699408  85.4380000
  73.1399408  81.4229408  84.0270000  69.2759408  86.4629408  74.7030000
  69.7309408  86.2569408  75.5190000  69.1089408  87.4049408  74.7520000
  83.3719408  89.3539408  76.9710000  83.3079408  88.3989408  76.9860000
  82.9949408  89.6059408  76.1290000  76.2559408  83.4489408  82.4580000
  75.9049408  83.5529408  81.5740000  75.4959408  83.5559408  83.0320000
  66.9949408  75.9949408  80.7340000  66.4209408  75.7369408  81.4560000
  66.9939408  76.9519408  80.7580000  76.4109408  87.9309408  76.0400000
  76.7929408  88.4529408  76.7440000  76.9819408  88.0879408  75.2870000
  74.1419408  84.1589408  84.0840000  73.6309408  83.3779408  84.2940000
  73.5819408  84.6599408  83.4910000  73.5379408  76.9969408  82.3460000
  74.1009408  76.3869408  82.8230000  73.4289408  76.5979408  81.4830000
  73.4829408  79.4799408  83.5240000  73.6019408  78.6709408  83.0260000
  74.1959408  79.4769408  84.1620000  74.6979408  85.7839408  79.6430000
  74.8279408  85.7939408  78.6940000  74.6369408  84.8559408  79.8670000
  65.6269408  85.5319408  82.0670000  66.1349408  85.9269408  81.3580000
  65.2669408  84.7309408  81.6870000  84.5209408  77.0009408  82.3890000
  85.1209408  76.3069408  82.6620000  83.6929408  76.7869408  82.8180000
  70.6369408  81.0749408  75.7480000  71.0509408  80.3259408  76.1760000
  70.8889408  80.9959408  74.8280000  74.6019408  88.8039408  83.5100000
  75.1489408  88.3629408  84.1610000  74.6489408  89.7299408  83.7450000
  77.2359408  85.8399408  84.2300000  77.9919408  85.7569408  83.6490000
  76.6439408  85.1399408  83.9550000  76.3829408  85.0279408  76.5230000
  75.9809408  84.9789408  75.6560000  76.6939408  85.9299408  76.5930000
  59.8979408  85.6919408  82.9550000  59.7849408  84.8959408  83.4740000
  60.8379408  85.7319408  82.7780000  68.7329408  85.2859408  62.7840000
  69.4529408  85.3559408  62.1580000  68.2929408  86.1349408  62.7390000
  86.7709408  63.6649408  82.7270000  86.7729408  62.8369408  83.2070000
  87.3549408  64.2339408  83.2270000  69.9189408  63.5539408  81.8240000
  69.1149408  63.4609408  82.3350000  70.5089408  62.8899408  82.1800000
  68.4839408  72.6569408  72.7750000  68.7579408  73.2109408  72.0450000
  69.2489408  72.1129408  72.9640000  61.2759408  80.9209408  82.3260000
  61.5259408  80.2529408  81.6880000  61.9619408  81.5849408  82.2600000
  67.4129408  86.2019408  80.0570000  67.4249408  86.6489408  79.2110000
  68.2419408  86.4469408  80.4690000  81.6459408  85.8579408  79.2480000
  81.8839408  85.4889408  78.3980000  81.1379408  85.1669408  79.6750000
  72.1069408  88.3369408  82.1520000  72.8629408  88.3479408  82.7390000
  71.9139408  89.2609408  81.9920000  66.9049408  89.6589408  84.4020000
  67.4049408  89.1249408  85.0190000  67.5369408  89.8999408  83.7250000
  75.8789408  62.1039408  81.6990000  75.5149408  61.9559408  82.5720000
  76.7829408  61.7959408  81.7610000  68.8949408  81.6709408  79.8570000
  68.2309408  81.5909408  79.1720000  68.9859408  80.7849408  80.2080000
  79.3409408  79.3989408  80.3370000  79.0289408  79.1119408  79.4790000
  78.5439408  79.5879408  80.8320000  73.0649408  61.5539408  80.0000000
  73.9649408  61.6039408  80.3230000  72.9399408  60.6309408  79.7800000
  70.1359408  82.0139408  83.1660000  70.2959408  82.4989408  82.3560000
  70.9959408  81.9489408  83.5810000  78.4869408  68.0279408  61.6070000
  79.1999408  68.3819408  62.1380000  78.0509408  68.7999408  61.2450000
  67.1399408  87.5469408  77.6840000  66.8289408  87.2759408  76.8200000
  66.5409408  88.2459408  77.9460000  69.0859408  61.1759408  61.1750000
  68.4019408  60.5059408  61.1510000  68.6729408  61.9539408  60.8020000
  68.0329408  89.1679408  70.5370000  68.6119408  88.8459408  71.2270000
  67.5109408  89.8489408  70.9610000  72.8329408  76.8609408  73.8650000
  72.4649408  75.9809408  73.9370000  72.1939408  77.3459408  73.3420000
  65.5019408  60.1759408  80.8970000  65.1519408  60.8029408  81.5300000
  65.3639408  59.3209408  81.3060000  74.6709408  67.7959408  65.3550000
  75.3629408  67.6749408  64.7050000  74.3999408  66.9069408  65.5840000
  72.2429408  66.3459408  67.8770000  73.0639408  65.9189408  67.6340000
  71.5769408  65.9019408  67.3520000  79.3769408  67.5459408  72.7920000
  79.5639408  67.9789408  71.9590000  78.9799408  68.2279408  73.3340000
  89.9389408  72.9329408  80.1570000  89.2409408  73.5489408  79.9330000
  89.5489408  72.0699408  80.0180000  83.4369408  68.0999408  74.6000000
  83.0629408  68.4679408  73.7990000  83.0709408  67.2169408  74.6520000
  87.4789408  63.9939408  70.6530000  87.3369408  64.2939408  69.7560000
  87.7139408  63.0699408  70.5640000  83.8419408  67.9109408  71.1330000
  83.2649408  68.4849408  70.6300000  84.5029408  67.6239408  70.5030000
  84.1399408  61.3499408  70.9420000  83.2239408  61.4689408  71.1920000
  84.1099408  60.7419408  70.2040000  60.0609408  66.7279408  77.5830000
  60.7789408  67.3319408  77.7720000  59.7179408  67.0209408  76.7390000
  79.3879408  72.0239408  61.7080000  78.4449408  72.1189408  61.5730000
  79.5609408  71.0969408  61.5410000  78.6229408  64.8899408  72.5080000
  79.1929408  64.4829408  71.8550000  78.9969408  65.7609408  72.6440000
  87.7609408  62.7849408  63.9490000  88.2159408  62.0179408  63.6010000
  87.0409408  62.9349408  63.3370000  75.8699408  67.0169408  60.6600000
  75.2029408  66.8519408  61.3270000  76.4569408  67.6569408  61.0610000
  85.9399408  65.4359408  74.7680000  86.1589408  65.8389408  73.9280000
  85.7629408  64.5199408  74.5560000  85.4509408  66.9699408  65.4990000
  84.8859408  66.2069408  65.3780000  85.7639408  67.1789408  64.6180000
  60.4629408  82.8909408  73.2580000  60.2129408  81.9829408  73.0880000
  61.3599408  82.8359408  73.5870000  74.7979408  71.2589408  80.4950000
  74.1209408  71.7319408  80.0110000  75.3779408  71.9449408  80.8280000
  76.7079408  67.0059408  63.8860000  77.1969408  67.5149408  63.2390000
  76.7849408  66.0999408  63.5860000  65.6159408  63.9159408  77.9620000
  66.1299408  63.4149408  78.5940000  65.1099408  63.2559408  77.4870000
  85.2969408  65.6169408  79.7390000  86.1719408  65.2819408  79.5430000
  84.9219408  65.8239408  78.8830000  70.5079408  67.1349408  80.9140000
  71.3479408  66.7929408  80.6060000  70.6289408  67.2549408  81.8560000
  65.4309408  68.9249408  73.3460000  64.5449408  68.8439408  73.6980000
  65.4069408  69.7229408  72.8170000  89.5329408  60.6999408  63.3760000
  90.1959408  60.7629408  62.6890000  89.1429408  59.8339408  63.2540000
  79.1209408  71.3209408  73.8360000  78.7309408  71.3989408  72.9650000
  78.7629408  72.0599408  74.3270000  83.4509408  76.6139408  77.9200000
  83.0099408  77.2459408  77.3520000  82.8429408  76.4799408  78.6470000
  61.2429408  85.3819408  71.0890000  61.8839408  84.7989408  70.6820000
  60.4409408  84.8619408  71.1370000  60.5589408  63.4369408  62.1060000
  60.9039408  63.9419408  61.3700000  59.6199408  63.3699408  61.9320000
  79.8289408  72.1619408  64.8400000  80.2879408  72.3219408  65.6640000
  79.5549408  73.0299408  64.5450000  85.5609408  71.1319408  75.4750000
  85.1189408  70.5969408  76.1340000  84.8589408  71.6419408  75.0700000
  86.7429408  63.6139408  77.8620000  86.4659408  64.0829408  77.0750000
  86.0469408  62.9769408  78.0200000  81.2669408  60.7559408  68.5830000
  81.3999408  61.0999408  69.4660000  80.5919408  60.0849408  68.6870000
  87.0209408  60.6149408  83.3560000  86.1119408  60.3729408  83.1770000
  87.4589408  59.7839408  83.5400000  87.0549408  80.3509408  73.5330000
  86.2059408  80.0659408  73.1960000  87.4329408  79.5649408  73.9270000
  83.3629408  65.0449408  71.8150000  83.7649408  65.8809408  71.5770000
  84.1039408  64.4649408  71.9930000  84.9759408  61.0289408  80.1130000
  84.6729408  61.3969408  79.2830000  84.4759408  61.4979408  80.7810000
  82.5319408  83.9129408  76.2690000  83.3199408  83.8259408  76.8050000
  82.8589408  84.0669408  75.3830000  86.3219408  67.4929408  83.9420000
  86.3019408  66.7529408  84.5480000  87.1049408  67.9849408  84.1900000
  60.1739408  71.8329408  71.6060000  60.4409408  71.6049408  72.4960000
  60.8999408  72.3529408  71.2630000  76.6539408  69.5689408  67.1000000
  76.2859408  69.1019408  66.3490000  77.5579408  69.2609408  67.1550000
  85.7379408  86.5139408  76.0000000  85.5399408  85.6189408  75.7260000
  84.8859408  86.8929408  76.2160000  60.0309408  66.3349408  67.2890000
  59.4529408  65.8939408  66.6650000  60.7089408  66.7369408  66.7450000
  65.4109408  61.6389408  74.1010000  66.3529408  61.5459408  73.9540000
  65.1199408  62.2449408  73.4200000  72.0409408  63.7889408  60.3090000
  71.4489408  64.5119408  60.1020000  72.7159408  63.8299408  59.6310000
  84.4599408  62.0869408  77.5660000  84.6979408  62.1839408  76.6440000
  83.9199408  61.2969408  77.5930000  68.5499408  64.3989408  79.4280000
  69.1569408  64.0959408  80.1040000  67.8149408  63.7869408  79.4750000
  81.2339408  61.7299408  71.0500000  81.0569408  61.7479408  71.9900000
  81.0979408  62.6329408  70.7630000  82.1169408  66.2239408  76.4610000
  81.5759408  66.8179408  76.9810000  81.6809408  66.1839408  75.6100000
  64.1849408  79.2609408  75.5620000  63.2749408  79.4589408  75.3410000
  64.2369408  79.3929408  76.5080000  81.5719408  76.0879408  79.4610000
  81.2589408  76.5549408  80.2350000  82.0279408  75.3219408  79.8100000
  84.5889408  72.8039408  78.0590000  85.3309408  72.2919408  77.7360000
  84.9889408  73.5189408  78.5550000  62.6959408  64.0899408  81.8710000
  62.3059408  63.5869408  81.1560000  62.9999408  64.8979408  81.4560000
  89.8669408  82.4849408  83.7190000  90.5199408  82.0109408  83.2050000
  89.1229408  82.5889408  83.1250000  90.0319408  69.3559408  67.3470000
  89.0959408  69.2539408  67.5190000  90.1719408  68.9109408  66.5120000
  72.1399408  67.4559408  72.2220000  73.0799408  67.4309408  72.0430000
  71.9669408  66.6499408  72.7080000  82.2569408  72.3619408  71.4830000
  81.7519408  73.1539408  71.2990000  82.2079408  71.8529408  70.6740000
  87.9939408  68.9349408  78.7130000  88.8849408  68.7869408  79.0320000
  87.4419408  68.4079408  79.2910000  62.6369408  68.9269408  68.6340000
  63.0599408  69.1289408  69.4690000  61.7709408  69.3279408  68.7010000
  61.9669408  68.2519408  78.4270000  62.8179408  68.6559408  78.5950000
  61.4089408  68.5619408  79.1400000  87.5039408  65.9579408  72.6760000
  87.6349408  65.1329408  72.2080000  87.4329408  66.6169408  71.9850000
  66.0659408  63.5049408  63.3350000  65.7129408  64.3689408  63.5490000
  65.3759408  63.0859408  62.8200000  80.1629408  63.2489408  67.1740000
  80.7889408  62.6829408  67.6270000  79.4289408  63.3299408  67.7820000
  76.8479408  89.6619408  70.6200000  76.3209408  89.0759408  71.1630000
  76.2789408  89.8849408  69.8840000  65.8869408  70.2809408  65.3640000
  65.6359408  70.8369408  66.1020000  65.8729408  70.8659408  64.6070000
  82.0509408  87.8479408  81.3780000  82.2919408  87.3129408  80.6220000
  82.4079408  88.7149408  81.1820000  86.0049408  88.4509408  80.5770000
  85.3879408  87.8689408  80.1320000  85.6789408  89.3319408  80.3920000
  75.9519408  75.9449408  60.6750000  75.0699408  75.6069408  60.8280000
  76.3909408  75.2529408  60.1800000  82.1649408  67.7679408  68.6350000
  83.0789408  67.4839408  68.6030000  82.1279408  68.5239408  68.0490000
  84.3869408  70.8979408  67.2380000  84.6949408  71.3449408  68.0260000
  85.0989408  71.0059408  66.6070000  80.4669408  87.5979408  76.5020000
  80.0149408  88.4079408  76.7400000  79.9129408  86.9009408  76.8520000
  77.1799408  84.4859408  71.5940000  77.1339408  84.0919408  70.7230000
  77.8769408  85.1389408  71.5260000  87.1109408  67.9229408  70.7590000
  86.6699408  68.6599408  71.1820000  87.2859408  68.2279408  69.8680000
  84.4309408  68.2329408  60.1660000  84.9999408  68.8329408  59.6840000
  84.9499408  67.9689408  60.9260000  87.6649408  77.8339408  80.4340000
  87.0099408  77.9209408  81.1270000  87.7929408  78.7259408  80.1110000
  80.4459408  65.7249408  65.9510000  80.6899408  64.9389408  66.4390000
  81.2809408  66.0999408  65.6680000  64.0989408  77.2339408  80.9040000
  63.5579408  77.6299408  80.2210000  64.7849408  77.8809408  81.0720000
  75.0709408  63.1099408  71.9730000  75.9309408  62.7019408  71.8700000
  74.5769408  62.4959408  72.5170000  61.2549408  66.8109408  74.1630000
  60.3669408  66.7379408  74.5100000  61.5479408  67.6809408  74.4330000
  61.2039408  78.3319408  68.1590000  61.7869408  78.4599408  68.9080000
  60.4139408  77.9419408  68.5330000  70.8509408  78.0429408  80.5640000
  71.5169408  77.8769408  79.8970000  70.6929408  77.1879408  80.9640000
  85.3289408  73.5029408  71.5810000  85.0329408  74.2309408  72.1270000
  86.1189408  73.1829408  72.0170000  87.1119408  87.8559408  74.3000000
  86.6299408  87.3489408  74.9530000  88.0099408  87.8809408  74.6300000
  84.7879408  62.1149408  65.8990000  84.1839408  61.3719408  65.9120000
  85.6579408  61.7159408  65.9040000  79.4179408  75.1679408  76.0930000
  80.2329408  74.6729408  76.0060000  79.6999408  76.0539408  76.3210000
  65.1689408  74.5189408  76.3780000  65.8409408  74.4369408  77.0540000
  64.4199408  74.9079408  76.8290000  84.5049408  63.7859408  68.3370000
  84.6659408  63.1259408  67.6630000  85.3689408  63.9629408  68.7110000
  81.4209408  65.9589408  73.7260000  80.7449408  66.4539408  73.2630000
  82.0389408  65.6999408  73.0420000  64.4059408  70.8699408  61.0480000
  63.6999408  71.4429408  61.3470000  65.1239408  71.0339408  61.6600000
  77.9489408  77.1749408  71.2960000  77.9059408  76.2389408  71.0990000
  78.8179408  77.2979408  71.6800000  85.4809408  71.9639408  69.4060000
  85.1199408  72.5119408  70.1030000  86.2799408  71.5939408  69.7810000
  87.2379408  64.9699408  68.0610000  87.3909408  65.8909408  68.2740000
  87.5609408  64.8749408  67.1650000  76.7859408  78.4209408  61.6810000
  76.7219408  77.5299408  61.3370000  77.4129408  78.8559408  61.1040000
  82.8489408  73.5719408  79.9600000  83.5609408  73.2709408  79.3950000
  82.1069408  73.0129408  79.7290000  83.2589408  60.4689408  74.2250000
  83.7039408  59.7619408  73.7580000  83.9489408  61.1049408  74.4120000
  60.9149408  72.1979408  63.5130000  60.7669408  72.8599408  62.8380000
  60.2449408  71.5339408  63.3490000  76.2619408  65.6629408  71.8050000
  77.1559408  65.3529408  71.9450000  75.7269408  64.8699408  71.8260000
  85.2609408  62.5219408  75.1500000  86.1599408  62.1979408  75.2140000
  85.1129408  62.6349408  74.2110000  86.0369408  69.7699408  72.4210000
  86.3529408  69.1019408  73.0300000  85.0999408  69.8379408  72.6050000
  83.0209408  68.4339408  63.5050000  83.2149408  69.3699408  63.4500000
  83.4379408  68.1499408  64.3190000  78.3969408  61.7669408  64.5070000
  78.1719408  61.0319408  65.0770000  79.3529408  61.8069408  64.5340000
  89.4079408  80.4649408  72.4830000  88.5159408  80.4729408  72.8300000
  89.2959408  80.4509408  71.5330000  79.9099408  68.3669408  70.0660000
  79.9099408  69.2509408  69.6990000  80.6139408  67.9149408  69.6030000
  82.3429408  77.8229408  73.7280000  82.4789408  78.5569408  74.3260000
  81.4959408  77.9999408  73.3180000  78.5539408  78.9259408  84.6820000
  78.7939408  78.2999408  85.3660000  79.3529408  79.4279408  84.5250000
  60.9789408  71.7839408  66.4660000  60.8059408  71.5689408  65.5490000
  60.8379408  70.9619408  66.9360000  78.5449408  66.2349408  68.9460000
  78.6869408  66.3049408  68.0020000  78.8589408  67.0669408  69.2990000
  77.5829408  62.1169408  71.6990000  77.5359408  61.9249408  72.6360000
  77.4419408  61.2719408  71.2740000  83.0879408  66.0449408  62.2860000
  83.1179408  66.9629408  62.5550000  82.5769408  66.0479408  61.4770000
  89.4029408  81.3029408  76.8030000  89.1189408  82.1149408  76.3830000
  90.2919408  81.4879408  77.1050000  89.9999408  63.3119408  68.7350000
  89.2879408  62.6869408  68.8720000  89.6239408  64.1599408  68.9690000
  67.9229408  60.9289408  67.0610000  68.3859408  61.4039408  67.7510000
  67.6119408  61.6119408  66.4670000  86.0629408  66.2019408  62.8730000
  86.7759408  66.4759408  62.2960000  85.4759408  65.7009408  62.3070000
  88.3659408  65.4669408  79.3010000  88.8039408  65.9929408  78.6320000
  88.0599408  64.6899408  78.8330000  80.9419408  64.3839408  77.7550000
  80.5819408  63.9059408  77.0080000  81.5239408  65.0359408  77.3640000
  81.4199408  73.2069408  84.2540000  81.6209408  72.3409408  84.6100000
  81.2789408  73.0559408  83.3200000  89.1759408  70.3779408  82.4850000
  88.2839408  70.5879408  82.2080000  89.0939408  70.1619408  83.4140000
  87.5159408  71.6489408  78.8270000  87.5849408  70.6959408  78.7670000
  87.6049408  71.8379408  79.7610000  88.1189408  73.0759408  83.9840000
  88.7619408  72.6759408  84.5710000  87.4529408  73.4369408  84.5690000
  62.9169408  70.2559408  82.9200000  62.3259408  70.8239408  82.4250000
  63.4999408  70.8599408  83.3800000  81.1939408  64.9999408  84.4080000
  80.3499408  65.2639408  84.7730000  81.2559408  64.0639408  84.5980000
  62.6489408  67.0719408  83.3300000  62.9159408  67.8839408  82.8980000
  62.1039408  66.6239408  82.6820000  87.0089408  67.7539408  80.9100000
  87.1639408  67.5669408  81.8360000  86.1749408  67.3249408  80.7160000
  86.9399408  70.5709408  65.5480000  87.2969408  71.4359408  65.7460000
  87.5429408  70.2049408  64.9000000  82.1869408  67.3489408  83.2340000
  82.6329408  67.2299408  82.3960000  81.9849408  66.4599408  83.5270000
  83.0549408  86.8219408  75.9560000  82.1179408  86.8199408  76.1500000
  83.1779408  86.0819408  75.3610000  86.0829408  74.9759408  82.9120000
  86.8299408  74.5689408  82.4730000  86.1679408  74.7089408  83.8270000
  61.7139408  64.7479408  64.2270000  61.3929408  64.3309408  63.4270000
  61.0859408  64.4889408  64.9010000  84.2559408  83.5429408  78.3680000
  84.2759408  82.7569408  78.9150000  85.1489408  83.6239408  78.0320000
  85.2449408  75.1359408  79.2390000  84.6809408  75.3399408  79.9860000
  85.0279408  75.8009408  78.5860000  87.8889408  62.9389408  60.7890000
  87.1389408  62.3659408  60.9500000  87.5709408  63.8159408  61.0000000
  77.5889408  65.9449408  81.8650000  77.9269408  65.0509408  81.9150000
  78.2399408  66.4199408  81.3480000  80.0679408  66.6019408  80.6770000
  80.4109408  65.7399408  80.4420000  80.8469408  67.1369408  80.8290000
  89.4139408  63.1659408  76.0720000  89.2369408  62.3849408  76.5970000
  88.9069408  63.8589408  76.4960000  77.8799408  67.6249408  84.1220000
  77.7579408  66.6759408  84.0920000  77.0159408  67.9709408  84.3480000
  84.0009408  64.7069408  65.0710000  83.8849408  64.5229408  64.1390000
  84.2479408  63.8649408  65.4530000  88.6979408  64.9809408  83.9730000
  89.2289408  65.6649408  84.3820000  89.2709408  64.2149408  83.9480000
  69.8899408  71.8059408  77.1790000  70.2009408  71.2239408  77.8720000
  70.1229408  71.3559408  76.3660000  62.2539408  75.9619408  84.7120000
  61.4929408  75.4689408  84.4070000  63.0069408  75.4519408  84.4130000
  80.0029408  69.2039408  83.4090000  80.8009408  68.6759408  83.4560000
  79.3039408  68.6049408  83.6730000  83.6059408  72.7209408  74.1930000
  83.3069408  72.6279408  73.2890000  83.8659408  73.6389408  74.2670000
  83.0969408  67.0939408  80.7320000  83.5719408  67.7899408  80.2780000
  83.5829408  66.2959408  80.5220000  81.2829408  64.2129408  70.2370000
  82.1709408  64.4309408  70.5200000  80.9569408  65.0169408  69.8310000
  65.2779408  71.5559408  67.5480000  64.8449408  70.9229408  68.1220000
  65.5749408  72.2489408  68.1370000  66.0519408  66.0389408  72.9900000
  66.7619408  65.9259408  72.3580000  65.9799408  66.9859408  73.1040000
  86.9689408  86.1229408  82.1750000  87.8909408  86.2139408  82.4190000
  86.8059408  86.8519408  81.5770000  60.5089408  69.7659408  73.8980000
  59.8269408  69.7809408  74.5700000  60.2249408  69.0889408  73.2830000
  82.0069408  73.9469408  76.1180000  82.6479408  73.3789408  75.6900000
  82.4899408  74.3509408  76.8390000  63.1369408  75.9089408  77.4420000
  63.2879408  76.7359408  77.8990000  62.3239408  76.0479408  76.9560000
  84.1139408  63.7159408  81.1230000  84.5879408  64.4759408  80.7840000
  84.5419408  63.5189408  81.9560000  73.7419408  66.4529408  75.6390000
  74.2449408  66.8479408  74.9270000  73.4279408  67.1979408  76.1520000
  63.9139408  74.3159408  80.0960000  63.3239408  75.0459408  80.2810000
  63.8699408  74.2069408  79.1460000  79.3529408  69.0949408  79.9650000
  78.9699408  69.8979408  80.3180000  79.1119408  68.4159408  80.5960000
  77.2159408  62.2419408  74.2630000  77.4569408  61.6839408  75.0030000
  76.9959408  63.0849408  74.6600000  66.1759408  63.6459408  83.8610000
  67.0319408  63.4339408  84.2340000  65.6269408  63.8449408  84.6190000
  60.6509408  74.1239408  83.5250000  59.7119408  73.9479408  83.5810000
  60.9809408  73.4709408  82.9080000  62.0539408  72.5049408  81.6720000
  62.7779408  73.0489408  81.3630000  61.3189408  72.7389408  81.1060000
  87.4739408  68.2959408  67.3770000  87.0789408  69.0559408  66.9490000
  87.4529408  67.6089408  66.7110000  64.6389408  68.2059408  60.3610000
  64.5499408  69.1419408  60.5400000  65.5799408  68.0399408  60.4160000
  63.5789408  65.2939408  74.7230000  64.2869408  65.7469408  74.2640000
  62.8469408  65.9109408  74.7040000  74.3679408  68.5949408  80.4910000
  74.4269408  69.5469408  80.5680000  74.3979408  68.4279408  79.5490000
  62.4339408  89.4479408  81.3220000  61.7669408  88.7629408  81.3040000
  62.1439408  90.0829408  80.6670000  79.6399408  77.0629408  81.6660000
  80.2749408  77.2579408  82.3550000  79.4069408  77.9179408  81.3040000
  87.1349408  72.3819408  81.4320000  86.3539408  71.8949408  81.6950000
  87.7049408  72.3559408  82.2000000  61.7099408  64.5589408  77.3620000
  61.2679408  64.1129408  76.6390000  61.0809408  65.2169408  77.6580000
  63.7859408  63.1389408  65.5410000  64.7399408  63.2159408  65.5740000
  63.5029408  63.8839408  65.0110000  82.3099408  70.3559408  81.7640000
  81.7209408  71.1059408  81.6740000  81.7629408  69.6659408  82.1410000
  88.6129408  80.5529408  80.3810000  89.2029408  80.8629408  81.0670000
  88.5069408  81.3039408  79.7970000  84.3199408  75.3179408  73.4330000
  83.7379408  76.0469408  73.2200000  84.8819408  75.6559408  74.1310000
  79.5539408  60.0589408  77.2370000  79.8519408  60.3489408  76.3750000
  78.6799408  60.4369408  77.3290000  84.5779408  86.1839408  79.7680000
  85.3119408  85.7339408  79.3490000  83.8019408  85.8429408  79.3220000
  79.7779408  83.9979408  73.5600000  80.2779408  84.1409408  72.7560000
  80.3799408  83.5269408  74.1360000  76.2369408  62.5929408  67.0360000
  76.4979408  61.7169408  66.7530000  77.0569408  63.0199408  67.2820000
  77.8549408  63.6489408  68.8230000  78.0219408  64.5789408  68.9790000
  77.6949408  63.2839408  69.6930000  81.6989408  60.0119408  79.4060000
  82.3109408  59.7979408  78.7010000  80.9559408  60.4209408  78.9620000
  81.1139408  62.1109408  64.7390000  81.1109408  62.6599408  65.5240000
  81.5609408  62.6399408  64.0780000  82.0079408  70.1399408  76.2200000
  81.9829408  70.3189408  75.2790000  82.8879408  69.7949408  76.3750000
  76.6089408  78.0909408  73.3550000  76.7289408  77.5009408  72.6110000
  77.4469408  78.5439408  73.4390000  87.8639408  77.4319408  69.3610000
  87.7469408  77.2979408  70.3010000  88.3079408  78.2779408  69.2930000
  61.0329408  85.6039408  73.9710000  60.2089408  85.2399408  74.2930000
  61.2309408  85.0919408  73.1870000  61.9339408  89.6879408  78.6420000
  62.2469408  88.7839408  78.6550000  61.5109408  89.7829408  77.7880000
  61.1559408  78.4609408  80.0400000  60.2709408  78.7809408  79.8660000
  61.0349408  77.5459408  80.2950000  77.4589408  79.6149408  66.9330000
  76.5709408  79.2699408  67.0270000  77.7209408  79.3639408  66.0470000
  86.6749408  77.5639408  73.5590000  86.2789408  77.7839408  74.4030000
  86.8119408  76.6169408  73.5990000  83.0439408  81.6259408  73.4910000
  82.5689408  81.6099408  72.6600000  83.9519408  81.4399408  73.2520000
  62.7359408  83.2419408  81.7040000  62.8889408  83.6109408  80.8350000
  62.5469408  83.9999408  82.2570000  85.2289408  63.2469408  72.4100000
  84.8559408  62.6399408  71.7710000  86.0849408  63.4789408  72.0500000
  63.0529408  86.7679408  75.5720000  62.4119408  86.2939408  75.0430000
  63.1159408  87.6289408  75.1590000  85.6729408  80.8899408  83.2500000
  85.9379408  81.6929408  82.8020000  85.0279408  80.4909408  82.6670000
  88.0719408  75.0429408  74.1250000  88.3279408  74.1539408  73.8810000
  88.7059408  75.6059408  73.6790000  81.3089408  81.2979408  70.9070000
  80.3719408  81.3809408  71.0840000  81.3559408  80.9219408  70.0280000
  82.7679408  79.3119408  77.3790000  82.3009408  80.0629408  77.0110000
  83.4259408  79.6989408  77.9570000  87.1539408  85.2229408  78.8610000
  87.2309408  84.5909408  78.1470000  87.9429408  85.7599408  78.7930000
  88.9979408  75.2499408  77.3840000  88.6679408  75.0439408  78.2580000
  88.5579408  74.6249408  76.8080000  77.0249408  82.7099408  77.6690000
  76.8809408  82.0149408  77.0260000  76.7759408  83.5139408  77.2140000
  85.5159408  62.1409408  62.2740000  84.6969408  62.6339408  62.2290000
  85.2789408  61.3189408  62.7030000  71.7949408  64.1809408  75.4660000
  71.0579408  64.3869408  76.0420000  72.4969408  64.7619408  75.7580000
  86.7179408  83.2369408  77.1170000  87.0469408  83.5299408  76.2670000
  86.4409408  82.3329408  76.9690000  78.1019408  89.3339408  73.8490000
  78.8249408  89.9569408  73.9170000  78.5209408  88.5029408  73.6270000
  60.8829408  75.8929408  80.9960000  61.0199408  75.6469408  81.9110000
  60.0429408  75.4959408  80.7640000  89.7119408  87.0349408  78.1520000
  89.5509408  87.4989408  77.3300000  89.2639408  87.5589408  78.8150000
  67.1339408  83.6299408  77.5170000  66.9599408  84.4419408  77.0430000
  67.4829408  83.0339408  76.8540000  64.8129408  80.6049408  80.3340000
  64.8989408  81.5329408  80.5520000  64.8869408  80.1529408  81.1740000
  73.5109408  87.9189408  75.3630000  74.4469408  87.8499408  75.5500000
  73.2639408  87.0499408  75.0470000  81.1539408  87.1659408  66.5480000
  81.4189408  86.9389408  65.6570000  81.5359408  88.0299408  66.7000000
  76.0469408  64.5639408  75.7710000  76.0809408  64.5099408  76.7260000
  75.4529408  65.2939408  75.5940000  62.8799408  87.4629408  72.2670000
  62.0239408  87.0379408  72.2150000  63.2679408  87.3299408  71.4030000
  80.8209408  85.7819408  71.5460000  80.6039408  85.9449408  70.6280000
  80.7959408  86.6459408  71.9560000  87.3569408  61.1799408  66.2670000
  87.6309408  61.6629408  65.4870000  88.0139408  60.4909408  66.3660000
  78.4929408  80.8929408  71.3400000  78.2899408  80.2629408  70.6490000
  77.8709408  81.6069408  71.2050000  69.8979408  88.3239408  77.5680000
  70.5479408  87.6229408  77.5210000  69.0609408  87.8869408  77.4100000
  60.6229408  85.0849408  79.8260000  61.5509408  84.8679408  79.9130000
  60.5909408  85.7159408  79.1080000  84.9399408  88.5519408  72.8940000
  85.6679408  88.0659408  73.2810000  85.3499408  89.3119408  72.4820000
  86.2609408  80.5759408  76.5330000  85.9599408  79.7359408  76.1870000
  87.1519408  80.4039408  76.8380000  60.1289408  60.2789408  66.1440000
  60.1339408  60.2069408  65.1890000  60.6739408  59.5509408  66.4420000
  80.1059408  86.3139408  68.9570000  80.3829408  86.3689408  68.0430000
  79.8789408  87.2129408  69.1940000  77.8029408  61.4979408  62.0150000
  77.8179408  61.3079408  62.9530000  77.9959408  60.6579408  61.5970000
  84.8339408  78.1349408  75.5300000  85.1179408  77.2749408  75.8380000
  84.2629408  78.4619408  76.2250000  60.5509408  83.0329408  68.3860000
  60.1859408  83.4379408  67.6000000  59.8569408  83.1109408  69.0410000
  79.0939408  85.2559408  77.6310000  78.8449408  85.5209408  78.5160000
  78.5189408  84.5169408  77.4310000  84.6889408  86.4959408  83.9890000
  85.4609408  86.4079408  83.4300000  84.0209408  85.9579408  83.5630000
  79.7889408  87.3129408  83.2930000  80.5389408  87.1429408  82.7230000
  79.6029408  88.2449408  83.1720000  77.6129408  80.7449408  63.2240000
  77.4149408  79.8939408  62.8320000  77.7729408  81.3209408  62.4770000
  88.7029408  83.2359408  80.3090000  89.5569408  83.6369408  80.1500000
  88.0819408  83.8059408  79.8540000  79.1839408  82.3919408  79.3730000
  78.8759408  82.0519408  80.2130000  78.3959408  82.4469408  78.8330000
  82.4529408  82.8319408  84.3870000  83.2899408  83.2969408  84.4070000
  81.9209408  83.3219408  83.7600000  89.3329408  80.1069408  69.6110000
  90.1389408  80.5079408  69.2850000  88.7129408  80.1949408  68.8870000
  89.7389408  61.2499408  82.7270000  89.9719408  60.5979408  82.0660000
  88.7969408  61.1349408  82.8560000  86.4519408  78.2429408  83.9800000
  86.5979408  79.0739408  83.5290000  85.5169408  78.0689408  83.8690000
  62.8429408  85.7119408  83.1490000  63.7689408  85.4969408  83.0340000
  62.8479408  86.5679408  83.5780000  88.0669408  75.0089408  80.1910000
  88.0739408  75.9439408  79.9830000  87.1889408  74.8459408  80.5340000
  89.9059408  88.0329408  81.8660000  89.3759408  88.3819408  82.5830000
  90.0419408  87.1129408  82.0930000  80.8229408  80.4389408  84.5460000
  81.4419408  81.1659408  84.6110000  80.8099408  80.2179408  83.6140000
  63.7959408  62.6399408  61.5360000  63.1589408  63.0979408  60.9870000
  63.2689408  62.0539408  62.0780000  84.2699408  89.2149408  84.6630000
  84.2869408  88.9489408  85.5820000  84.4699408  88.4149408  84.1780000
  80.7379408  63.9019408  80.2470000  80.8629408  63.9519408  79.3000000
  81.6089408  64.0529408  80.6130000  89.0199408  88.8129408  84.3330000
  89.8619408  89.1639408  84.6250000  88.8459408  88.0819408  84.9260000
  77.0399408  88.4119408  84.8180000  77.5809408  88.5059408  85.6020000
  77.1749408  87.5059408  84.5410000  83.6199408  84.9529408  82.0760000
  82.8519408  84.5989408  81.6270000  84.1499408  85.3379408  81.3780000
  81.2529408  83.5169408  80.7880000  80.5179408  83.0819408  80.3570000
  80.8559408  83.9929408  81.5170000  63.1729408  89.6979408  83.8650000
  62.8949408  89.4999408  82.9710000  63.6089408  90.5479408  83.7990000
  84.4219408  69.4159408  80.1160000  85.2529408  69.6309408  80.5400000
  83.7539408  69.7569408  80.7110000  78.5739408  86.5729408  79.9790000
  79.3969408  87.0059408  80.2050000  77.9349408  86.9379408  80.5900000
  83.9579408  61.6669408  83.3620000  83.0839408  61.9459408  83.6370000
  84.0009408  60.7409408  83.6010000  81.0189408  81.9559408  77.3460000
  80.6409408  82.0609408  78.2200000  81.4569408  82.7889408  77.1720000
  89.3579408  66.4659408  81.7420000  88.9689408  66.1709408  80.9190000
  89.0259408  65.8529408  82.3980000  65.0389408  80.2599408  83.3180000
  65.4329408  80.8059408  83.9980000  64.2329408  79.9279408  83.7140000
  82.3159408  60.6029408  60.0200000  82.8489408  60.3259408  60.7650000
  82.9519408  60.8169408  59.3370000  62.0639408  62.4419408  79.6400000
  62.0359408  63.1009408  78.9460000  61.3919408  61.8059408  79.3950000
  76.0279408  89.2599408  78.5900000  75.0909408  89.1729408  78.4130000
  76.1359408  88.9249408  79.4800000  80.3859408  84.2079408  83.2040000
  80.0829408  85.1069408  83.3300000  79.8389408  83.6859408  83.7910000
  60.8689408  66.2169408  60.9050000  61.1979408  66.6709408  60.1290000
  61.6129408  66.1979408  61.5060000  70.0009408  86.2329408  81.9690000
  70.8279408  85.7619408  82.0740000  70.2609408  87.1449408  81.8330000
  73.1139408  89.2469408  78.1040000  73.4209408  88.6579408  77.4150000
  72.3449408  89.6749408  77.7280000  64.1209408 103.6749408  13.7610000
  64.0209408 104.4239408  14.3480000  64.6659408 103.0579408  14.2490000
  79.4019408 107.0039408   3.4620000  79.3069408 106.1259408   3.8320000
  78.6369408 107.1089408   2.8970000  66.9639408 117.2739408   4.1330000
  66.2589408 116.7169408   4.4630000  66.9889408 118.0129408   4.7410000
  81.1249408  91.1489408  21.7350000  80.9649408  90.2999408  21.3230000
  81.6349408  91.6379408  21.0890000  66.7109408 108.7099408  21.4700000
  66.3839408 109.3649408  22.0880000  67.6529408 108.8729408  21.4250000
  71.8849408 101.9679408  12.0810000  71.2899408 101.2449408  12.2800000
  72.7569408 101.5759408  12.1090000  65.8789408  96.9689408   8.7010000
  65.4139408  96.1719408   8.4480000  65.9029408  97.4959408   7.9020000
  60.6359408 104.0729408   8.5360000  59.8129408 104.3929408   8.1640000
  60.9089408 103.3719408   7.9450000  78.8559408 108.6129408   9.2840000
  78.4689408 108.1719408  10.0410000  78.1489408 109.1559408   8.9360000
  71.2259408 101.3479408   5.7040000  70.6419408 101.7979408   6.3140000
  71.6789408 100.6969408   6.2400000  82.0799408  99.5039408   6.3360000
  81.9909408  99.7379408   5.4120000  82.7389408 100.1109408   6.6740000
  65.6149408 103.6859408   8.9500000  65.7649408 103.7169408   9.8950000
  64.7539408 104.0859408   8.8300000  89.3079408 108.9599408  15.2020000
  89.6479408 109.5329408  15.8900000  89.8979408 109.0979408  14.4610000
  72.9309408 115.5519408  14.1980000  73.8639408 115.3599408  14.1090000
  72.5239408 115.1209408  13.4470000  88.0369408  95.5629408   5.5490000
  87.0969408  95.6829408   5.4130000  88.2159408  94.6789408   5.2300000
  78.3629408 111.3589408   0.6810000  77.7089408 112.0489408   0.5670000
  78.2789408 110.8169408  -0.1030000  70.6849408 105.9839408   6.6650000
  71.1339408 106.8249408   6.7490000  69.8769408 106.0929408   7.1670000
  88.7999408  99.9389408  15.7730000  87.8609408  99.9999408  15.5990000
  88.8569408  99.5959408  16.6650000  62.3889408 110.7699408   3.8460000
  63.1819408 111.3059408   3.8470000  62.6729408 109.9199408   4.1820000
  77.9779408 104.4559408  10.6650000  77.2519408 104.3639408  10.0480000
  77.7039408 103.9559408  11.4340000  73.5299408 104.6779408   0.5350000
  72.9009408 103.9769408   0.7060000  73.0779408 105.2629408  -0.0730000
  64.4319408 118.7859408  26.2340000  64.8979408 118.1089408  25.7430000
  63.7839408 119.1269408  25.6170000  71.7599408 113.1179408   8.5430000
  71.6899408 113.8819408   7.9720000  72.0759408 112.4179408   7.9710000
  74.5309408 116.0489408   1.8910000  75.1549408 116.0429408   1.1650000
  74.9719408 115.5639408   2.5890000  61.5889408  97.8679408   5.1380000
  61.9129408  97.0799408   4.7030000  62.3749408  98.2939408   5.4810000
  64.3779408  91.6949408  16.6380000  63.4469408  91.8319408  16.4640000
  64.7679408  91.5709408  15.7730000  75.1549408  90.6799408   8.8720000
  74.7649408  91.4279408   8.4200000  75.0899408  89.9599408   8.2450000
  75.4189408 104.0349408  13.0950000  74.8099408 103.9809408  13.8320000
  74.8679408 104.2559408  12.3440000  66.8749408 116.9259408   9.7580000
  67.0919408 117.8089408  10.0560000  67.0169408 116.9499408   8.8120000
  88.5349408 105.5709408   7.6430000  88.4489408 106.1489408   6.8850000
  88.1879408 106.0809408   8.3750000  68.3539408  96.3839408   3.5020000
  69.0179408  96.9059408   3.0520000  67.9879408  96.9769408   4.1590000
  67.7939408 103.7699408   7.0920000  67.1589408 103.5089408   7.7590000
  68.3649408 103.0079408   6.9930000  69.0859408  92.8069408  12.3010000
  69.2659408  93.2629408  11.4790000  69.7729408  93.1059408  12.8980000
  75.8509408 103.9929408   9.0110000  75.1649408 104.5659408   8.6690000
  75.4019408 103.1709408   9.2080000  67.6489408 107.3009408  12.5020000
  67.1329408 107.8939408  13.0490000  67.6139408 106.4609408  12.9600000
  82.4549408  93.6049408   2.6640000  81.6819408  93.5749408   2.1000000
  82.7979408  94.4919408   2.5530000  71.1919408 116.2969408   1.5580000
  71.2509408 117.2469408   1.6600000  71.6389408 115.9449408   2.3270000
  64.6869408  93.6109408  12.3470000  63.8339408  93.9499408  12.0730000
  65.2309408  94.3909408  12.4540000  71.3659408 110.8169408  12.9800000
  71.3449408 111.5859408  12.4090000  72.2869408 110.5579408  12.9990000
  74.5329408 109.5259408   7.8070000  74.0209408 108.9609408   8.3850000
  73.9069408 110.1799408   7.4950000  64.9169408 104.0799408   6.0540000
  65.2429408 103.2809408   6.4690000  64.3959408 104.5079408   6.7330000
  62.9999408 113.7209408   4.9930000  62.5599408 113.1309408   5.6050000
  63.7909408 113.2499408   4.7310000  69.3909408  95.9979408  13.5600000
  68.4679408  95.8209408  13.7410000  69.5449408  95.6099408  12.6990000
  66.4589408 109.0469408  14.2110000  65.7969408 108.9559408  14.8960000
  67.0899408 109.6709408  14.5690000  72.7269408  94.7419408  13.0350000
  73.5559408  94.2759408  12.9230000  72.3699408  94.4009408  13.8560000
  70.9189408 105.5149408  11.9010000  70.0709408 105.1079408  11.7250000
  70.7289408 106.4519408  11.9560000  71.2779408  98.6519408   9.3500000
  71.3409408  97.9429408   9.9910000  70.6729408  99.2789408   9.7440000
  67.3769408 118.8119408   1.6800000  66.6809408 118.2869408   1.2850000
  67.2869408 118.6599408   2.6210000  75.6899408 108.6069408   4.5490000
  75.8669408 108.6029408   3.6090000  76.2479408 107.9129408   4.9010000
  66.0069408  90.8799408   4.4630000  66.8559408  90.4709408   4.2940000
  66.1609408  91.8149408   4.3310000  69.4119408  98.7209408   6.5640000
  69.9009408  98.4549408   7.3430000  70.0189408  99.2819408   6.0810000
  69.0729408 100.0809408   9.9790000  69.3089408 100.3209408  10.8750000
  68.1399408  99.8699408  10.0250000  68.6629408 113.0849408   5.7270000
  69.1639408 112.7029408   6.4480000  69.3049408 113.2099408   5.0280000
  72.1909408  93.0269408   6.6490000  72.5829408  93.5069408   7.3790000
  72.8259408  92.3399408   6.4440000  62.7639408 100.3209408  15.9390000
  62.1979408 100.7929408  15.3280000  62.1579408  99.8679408  16.5260000
  63.7929408  95.9289408  18.5460000  64.5359408  95.3939408  18.2680000
  63.0419408  95.5539408  18.0850000  67.2649408  95.4869408  10.7700000
  66.6499408  96.0649408  10.3180000  67.6409408  94.9459408  10.0760000
  64.4899408  94.3149408   8.6110000  63.8189408  93.6769408   8.8510000
  64.7519408  94.0669408   7.7250000  78.2059408 101.1969408  11.0920000
  78.7899408 101.1579408  10.3350000  77.3289408 101.0939408  10.7250000
  72.6159408  92.7419408   2.6460000  72.2479408  93.1119408   1.8440000
  73.2749408  93.3789408   2.9240000  73.6049408  99.6929408   3.1680000
  74.0819408  98.9459408   3.5280000  74.2209408 100.4239408   3.2310000
  70.6809408 101.2849408   0.4750000  70.9629408 101.9649408  -0.1370000
  70.5939408 101.7389408   1.3140000  66.1979408 118.7859408   7.3920000
  65.6229408 119.3219408   7.9370000  66.9389408 119.3569408   7.1890000
  75.6389408  96.6119408   8.9870000  75.6199408  96.6119408   9.9440000
  76.5409408  96.8459408   8.7660000  76.1629408 110.3279408   9.8410000
  75.8969408 110.1039408   8.9500000  75.7949408 109.6309408  10.3840000
  67.3569408 104.9479408  14.1060000  66.7409408 104.6609408  14.7800000
  67.7119408 104.1349408  13.7450000  82.1589408 101.9809408   8.6940000
  82.2029408 102.9319408   8.6020000  82.8179408 101.6489408   8.0840000
  61.5759408  91.8369408  12.3790000  61.6699408  91.3979408  11.5340000
  61.7809408  92.7539408  12.1980000  72.6309408 103.1459408  14.3340000
  72.2629408 103.3379408  13.4710000  72.9819408 102.2589408  14.2530000
  70.1429408  98.5439408   2.9460000  70.7999408  98.6049408   2.2530000
  70.5939408  98.8529408   3.7320000  62.9149408 106.4549408  14.3630000
  63.5279408 107.1049408  14.7050000  62.2449408 106.3749408  15.0420000
  69.9729408  91.6209408   9.1660000  70.8859408  91.7839408   8.9290000
  70.0159408  91.2549408  10.0490000  72.5159408  99.3919408   7.0440000
  72.9239408  98.9559408   6.2950000  72.6179408  98.7729408   7.7670000
  80.6819408 104.5549408  10.8580000  80.4699408 104.9719408  11.6930000
  79.8309408 104.3559408  10.4670000  77.3339408  91.3149408  17.3720000
  77.1459408  92.1649408  17.7700000  76.5919408  90.7639408  17.6200000
  64.3569408 114.6489408  13.1330000  65.1819408 115.0809408  12.9100000
  63.8739408 115.2999408  13.6410000  66.0859408 104.8579408  11.4430000
  65.4669408 105.3769408  10.9300000  65.9959408 105.1919408  12.3360000
  73.4409408 106.1729408   8.5040000  73.3789408 105.9409408   7.5780000
  72.7799408 106.8539408   8.6260000  68.5019408  94.1379408   8.6120000
  68.8629408  94.4539408   7.7840000  68.9809408  93.3279408   8.7890000
  69.2219408 119.9579408  19.5540000  69.1209408 119.3189408  18.8490000
  69.7729408 120.6449408  19.1780000  65.8979408 116.1729408  15.7840000
  64.9769408 116.4009408  15.6590000  66.2559408 116.1269408  14.8980000
  64.1719408  98.0399408   6.5580000  63.5999408  98.3309408   7.2680000
  64.3229408  98.8259408   6.0330000  63.5469408 119.1949408  14.3880000
  63.4529408 118.7309408  13.5560000  64.0779408 119.9629408  14.1760000
  67.6459408 105.5889408   0.5610000  68.1379408 104.9059408   1.0160000
  68.1499408 106.3889408   0.7110000  69.7719408  92.8839408   5.6410000
  70.6209408  92.7349408   6.0590000  69.7999408  92.3549408   4.8440000
  79.7759408 107.0209408   6.7930000  79.6259408 107.7959408   6.2530000
  79.1299408 107.0889408   7.4960000  84.9269408 105.3199408   9.5870000
  85.3159408 104.5869408  10.0650000  85.3279408 105.2809408   8.7190000
  65.7419408 101.5499408  12.2860000  65.5099408 101.7689408  13.1890000
  66.5849408 101.9799408  12.1450000  89.0709408  92.3679408  13.5800000
  89.1899408  92.7229408  14.4610000  89.9599408  92.2269408  13.2550000
  75.3469408  97.8619408  13.5700000  75.5059408  97.1419408  12.9600000
  76.2199408  98.1279408  13.8590000  73.9419408 117.7469408  11.2050000
  73.6119408 117.6369408  12.0970000  73.2129408 118.1429408  10.7270000
  62.4759408 103.4329408  11.5170000  62.9669408 103.3179408  12.3310000
  62.3929408 104.3819408  11.4200000  64.0809408 100.9719408  10.1910000
  63.3579408 101.5829408  10.3280000  64.6869408 101.1519408  10.9110000
  62.4699408  92.2689408   9.4860000  61.9209408  93.0069408   9.2190000
  61.8819408  91.5139408   9.4670000  63.0199408 106.0899408  11.5960000
  62.9749408 106.1599408  12.5500000  63.1089408 106.9939408  11.2930000
  69.4949408 105.9309408   3.8740000  69.7659408 105.7989408   4.7830000
  69.9059408 106.7569408   3.6190000  68.0449408 108.2839408  17.2700000
  67.8129408 107.5769408  17.8720000  68.2419408 107.8409408  16.4450000
  68.0199408  91.0509408  14.0630000  68.1869408  91.8039408  13.4960000
  68.5849408  91.1939408  14.8240000  72.3299408 113.4389408   4.0320000
  71.5709408 112.9229408   3.7610000  73.0749408 113.0059408   3.6160000
  63.8559408 118.2669408   6.1100000  63.5329408 119.1219408   5.8250000
  64.7399408 118.4389408   6.4320000  62.1229408 112.1309408  17.8600000
  62.8419408 111.8089408  17.3180000  62.3069408 113.0629408  17.9750000
  78.9909408  98.3469408   5.9690000  79.9089408  98.3779408   6.2400000
  78.8449408  97.4349408   5.7200000  65.8029408 106.0779408   4.3120000
  66.5949408 105.6419408   3.9980000  65.6179408 105.6609408   5.1540000
  75.6349408 101.6509408   3.7230000  76.4549408 101.1739408   3.8460000
  75.4639408 102.0589408   4.5730000  73.6209408 105.0579408  11.2560000
  72.8359408 105.3699408  11.7060000  73.5009408 105.3309408  10.3470000
  68.8879408 110.4159408   1.5990000  68.2829408 109.7779408   1.9770000
  68.7719408 111.2019408   2.1330000  73.4439408  90.5639408   5.1250000
  74.2609408  90.5429408   5.6220000  73.7179408  90.5099408   4.2090000
  68.1309408 107.3219408   9.6840000  68.1119408 108.2399408   9.4110000
  67.9969408 107.3509408  10.6310000  71.8609408  98.8709408   0.8180000
  71.4729408  99.7019408   0.5460000  72.8049408  99.0259408   0.7920000
  68.7819408 104.8269408  10.5120000  67.8989408 104.6719408  10.8490000
  68.7299408 105.6859408  10.0920000  85.7759408 105.5769408  15.5950000
  86.5949408 105.4519408  15.1160000  85.8309408 104.9639408  16.3280000
  74.7319408  95.0299408   6.7360000  75.2879408  94.2539408   6.6670000
  75.2679408  95.6689408   7.2060000  87.4529408 102.4809408  12.6510000
  86.9679408 101.6609408  12.7380000  88.3159408 102.2169408  12.3320000
  79.8039408 100.9529408   8.8190000  80.7069408 101.2619408   8.7410000
  79.2889408 101.5889408   8.3220000  73.6759408 102.0399408   8.3110000
  72.9579408 102.4469408   8.7970000  73.3909408 101.1369408   8.1740000
  64.4319408  89.9699408   9.1520000  64.9539408  90.3289408   9.8690000
  63.7079408  90.5879408   9.0490000  63.1979408 105.2869408   7.9950000
  62.5999408 105.4139408   7.2590000  62.7259408 104.7069408   8.5910000
  88.8019408  96.7519408  15.1170000  88.5949408  96.3399408  14.2790000
  87.9779408  97.1509408  15.3980000  62.1939408  92.4329408  15.0200000
  61.9859408  92.0149408  14.1840000  62.7589408  93.1699408  14.7850000
  80.3539408  91.1919408  14.3940000  81.2449408  91.0649408  14.0680000
  80.3279408  92.1089408  14.6690000  72.9529408 108.1909408   4.7110000
  72.8259408 108.4779408   5.6150000  73.8859408 108.3269408   4.5450000
  71.2079408 103.2309408   9.6310000  71.4929408 103.1859408  10.5430000
  70.4689408 103.8389408   9.6400000  65.2889408 106.5969408   1.2440000
  66.1979408 106.4009408   1.4730000  65.0949408 106.0109408   0.5130000
  65.9609408  91.2959408  10.8390000  66.7089408  91.8909408  10.8830000
  65.2019408  91.8499408  11.0230000  74.0369408  99.3019408  10.0320000
  73.0859408  99.2279408   9.9500000  74.3769408  98.5189408   9.5980000
  77.9259408 103.8949408  14.1400000  76.9729408 103.9149408  14.2200000
  78.2449408 104.1439408  15.0080000  77.9639408  94.7779408   0.3340000
  77.0519408  95.0459408   0.4500000  78.1979408  94.3589408   1.1630000
  66.0819408 101.7559408   3.1260000  65.2619408 102.2489408   3.0890000
  66.7199408 102.3779408   3.4750000  76.0959408 100.7469408   9.5820000
  75.3069408 100.3579408   9.9590000  76.3329408 100.1619408   8.8630000
  71.8799408 101.9409408   3.1400000  71.5959408 101.9629408   4.0530000
  72.2839408 101.0799408   3.0340000  70.6029408 108.1769408  12.3180000
  69.6709408 108.0139408  12.4610000  70.6839408 109.1309408  12.3230000
  66.3819408  93.8779408   6.2780000  66.8239408  94.1609408   7.0780000
  66.7769408  94.4079408   5.5850000  80.9929408 106.8169408   1.4860000
  81.3499408 107.6909408   1.3270000  80.4049408 106.9299408   2.2320000
  87.1529408 103.0869408  16.5300000  87.5009408 102.5009408  17.2020000
  86.4709408 102.5749408  16.0950000  88.4819408 100.9349408   9.6410000
  88.8959408 101.1749408  10.4700000  88.9019408 101.4979408   8.9910000
  74.8989408 116.5689408   8.8670000  74.8359408 116.8249408   9.7880000
  74.8469408 115.6129408   8.8800000  66.4319408  99.2409408   9.6680000
  65.6539408  99.7959408   9.6110000  66.1929408  98.4429408   9.1960000
  77.9739408 100.1959408   4.3400000  78.5639408 100.9399408   4.4650000
  78.2259408  99.5729408   5.0210000  74.5639408 101.3319408  12.5050000
  75.3129408 101.9219408  12.4160000  74.8419408 100.5249408  12.0710000
  65.8949408 109.3489408  10.4970000  65.2319408 109.5939408  11.1420000
  65.4229408 108.8129408   9.8600000  70.5329408  94.8369408  11.0850000
  70.4469408  95.5079408  10.4070000  71.3799408  95.0149408  11.4930000
  68.3729408 113.4639408  13.1860000  69.1639408 113.9339408  12.9220000
  67.6539408 113.9979408  12.8490000  68.0019408 103.8009408   4.2870000
  68.6839408 104.4149408   4.0160000  67.9259408 103.9279408   5.2330000
  68.5919408 110.0079408  11.6570000  67.6919408 109.6829408  11.6220000
  68.5009408 110.9549408  11.7650000  68.5059408 119.5499408   4.7200000
  69.2599408 119.8159408   4.1930000  68.6619408 119.9459408   5.5770000
  64.0379408 117.2559408   9.9530000  64.9729408 117.0479408   9.9550000
  63.9999408 118.1869408   9.7350000  77.8569408  95.7969408   6.3200000
  78.7739408  95.6119408   6.1180000  77.3679408  95.4069408   5.5960000
  84.8209408  97.4299408   8.6100000  84.9309408  96.7309408   7.9650000
  85.4989408  98.0679408   8.3900000  69.6499408 101.8419408   7.8760000
  70.4039408 102.2779408   8.2730000  69.2779408 101.3139408   8.5820000
  76.4069408  93.6289408  19.0480000  77.1099408  94.2789408  19.0450000
  76.1969408  93.5069408  19.9740000  67.8239408  99.7049408   1.9020000
  68.6989408  99.3949408   2.1340000  67.3699408  99.7939408   2.7400000
  87.1329408 103.4899408   6.5760000  86.2129408 103.7239408   6.4540000
  87.5309408 104.2739408   6.9540000  65.3759408  95.8509408   4.5400000
  65.9379408  96.5929408   4.3170000  65.1269408  96.0039408   5.4520000
  83.5869408 101.2759408   3.3410000  82.6949408 101.6219408   3.3230000
  84.1119408 101.9439408   2.9000000  77.7229408  99.0149408  14.5310000
  78.2079408  99.8399408  14.5330000  77.7629408  98.7109408  15.4380000
  77.0589408  94.2909408   3.6940000  77.3229408  93.4279408   4.0130000
  76.3329408  94.1129408   3.0950000  69.2999408  94.7489408  16.6790000
  68.4779408  94.7659408  16.1890000  69.0309408  94.7099408  17.5970000
  70.2849408  99.8869408  12.5980000  70.8409408  99.1149408  12.4900000
  70.1829408  99.9779408  13.5460000  88.8309408  97.2719408   2.2880000
  88.8699408  96.9779408   3.1980000  89.5399408  96.7969408   1.8530000
  77.8369408  95.8009408  18.3520000  78.7399408  95.6199408  18.0890000
  77.7859408  96.7559408  18.3950000  65.6739408 113.6199408   0.0820000
  66.0949408 113.8689408   0.9050000  66.3839408 113.2649408  -0.4520000
  63.0279408 108.2679408   1.4330000  63.1569408 109.2159408   1.4620000
  63.8729408 107.9189408   1.1520000  63.5549408 102.7819408   3.2750000
  62.7219408 102.4139408   3.5720000  63.4619408 103.7249408   3.4110000
  80.1159408  93.8369408  15.0270000  80.6079408  94.5009408  14.5440000
  79.2639408  93.8059408  14.5920000  69.1499408 119.6889408  22.5040000
  69.9349408 120.2339408  22.5540000  69.1679408 119.3219408  21.6200000
  62.6359408  99.1879408  12.6550000  62.1249408  99.8089408  13.1730000
  61.9839408  98.6069408  12.2650000  70.1199408  91.7629408   3.4120000
  69.5699408  91.8339408   2.6310000  70.9739408  92.0939408   3.1340000
  84.7679408  96.0699408  17.1460000  83.8289408  96.0299408  16.9640000
  85.1819408  95.7409408  16.3480000  65.1569408 101.4689408  15.1180000
  64.3929408 101.0489408  15.5120000  65.9069408 101.0229408  15.5130000
  67.8019408 106.5439408   7.0640000  67.6149408 105.6139408   7.1890000
  67.8329408 106.9049408   7.9500000  63.0389408 117.9559408  28.5700000
  63.2659408 117.7619408  27.6600000  62.9049408 118.9029408  28.5870000
  73.0339408 104.4019408   3.2410000  73.4299408 104.6769408   2.4150000
  72.6019408 103.5729408   3.0360000  67.2109408  98.0059408   5.3860000
  66.6419408  98.7579408   5.5510000  67.9689408  98.1489408   5.9520000
  90.1159408  98.1649408  11.4220000  90.1929408  97.2509408  11.1470000
  89.2939408  98.4639408  11.0340000  81.0649408  99.6399408   2.0140000
  81.5329408  99.0169408   2.5690000  81.5449408  99.6309408   1.1850000
  64.8949408 108.8529408   6.4910000  65.2919408 109.6979408   6.7040000
  65.4089408 108.5259408   5.7530000  60.8779408 119.1329408   1.2170000
  61.1779408 119.6449408   0.4660000  61.0379408 118.2229408   0.9670000
  66.9089408  94.5699408  15.4710000  66.4269408  95.1219408  14.8560000
  66.2819408  94.3849408  16.1700000  76.1519408 106.8349408   6.9130000
  75.4469408 106.5409408   6.3350000  75.7099408 107.0769408   7.7270000
  75.4429408  90.1609408  13.2290000  76.1079408  89.5109408  13.4580000
  75.5879408  90.8799408  13.8430000  74.3959408 108.1949408  10.7400000
  74.3709408 108.1429408  11.6950000  74.2869408 107.2889408  10.4480000
  74.6329408 113.1429408  10.1660000  74.8209408 113.6079408   9.3500000
  74.7559408 112.2189408   9.9490000  69.7159408 107.2639408   0.6440000
  70.4809408 106.8889408   0.2080000  70.0779408 107.7609408   1.3780000
  74.3869408 110.9349408   1.0510000  73.5169408 111.2199408   0.7720000
  74.8489408 110.7409408   0.2360000  70.7769408  99.9669408  15.3550000
  71.7099408 100.1599408  15.2610000  70.7469408  99.1889408  15.9110000
  79.8279408 105.7489408  13.0870000  80.5869408 105.7009408  13.6680000
  79.2939408 104.9909408  13.3260000  86.9299408 101.9079408   1.8610000
  86.9209408 102.4829408   2.6270000  87.6339408 101.2839408   2.0360000
  75.8339408  93.3109408   1.4930000  76.3929408  92.5349408   1.4550000
  75.4889408  93.4019408   0.6050000  70.5189408  97.1779408  15.9270000
  70.5439408  96.3239408  16.3590000  70.1409408  96.9999408  15.0660000
  76.8989408 119.9439408   5.6780000  76.7499408 119.2089408   6.2740000
  76.6159408 119.6199408   4.8230000  69.8299408 117.2289408   5.4010000
  68.9329408 117.4469408   5.1470000  70.3679408 117.5429408   4.6740000
  61.1219408  96.0539408   9.6410000  60.6489408  96.3209408   8.8530000
  61.9209408  96.5809408   9.6320000  71.0869408 115.7069408   7.3250000
  70.8939408 116.1889408   8.1280000  70.7599408 116.2699408   6.6230000
  62.6749408 108.7829408  10.9760000  63.1839408 109.3299408  11.5740000
  63.0549408 108.9529408  10.1140000  73.9669408 105.5319408   5.7910000
  74.1179408 104.5939408   5.6770000  73.3829408 105.7699408   5.0710000
  62.1679408  94.6769408  12.0900000  61.6919408  95.0179408  11.3330000
  61.8439408  95.1909408  12.8290000  69.7219408 118.0699408   8.6160000
  69.4219408 118.0619408   7.7080000  69.1469408 118.6979408   9.0530000
  88.0529408 115.8899408  12.2050000  88.2489408 116.7309408  12.6180000
  87.0989408 115.8779408  12.1250000  73.8599408  96.7389408   2.4700000
  73.0679408  97.2019408   2.1940000  73.5509408  96.0939408   3.1060000
  64.9999408 119.5199408  18.2440000  65.1339408 119.6689408  19.1800000
  64.6149408 120.3359408  17.9240000  70.5059408 109.8669408   6.1100000
  69.8559408 109.5139408   5.5030000  69.9949408 110.3779408   6.7380000
  73.0909408  95.1259408   4.6640000  73.6829408  95.1169408   5.4160000
  72.3979408  94.5079408   4.8970000  63.3269408 114.6049408  19.3680000
  64.2059408 114.2289408  19.3230000  63.4169408 115.4729408  18.9750000
  60.0379408 111.4779408   4.6990000  60.9309408 111.1549408   4.5830000
  59.4899408 110.8369408   4.2450000  75.7609408 115.8819408   4.7460000
  75.6409408 115.0999408   4.2060000  74.9199408 115.9989408   5.1890000
  74.2179408 110.3289408  13.1910000  74.4609408 111.2159408  12.9250000
  75.0449408 109.9189408  13.4450000  64.6779408 112.4899408  16.5850000
  65.2769408 113.2359408  16.6160000  65.2109408 111.7439408  16.8610000
  77.4849408 117.6719408   7.7400000  76.6389408 117.2889408   7.9700000
  77.8719408 117.0489408   7.1250000  62.3099408 108.7869408   5.5240000
  61.6629408 108.6259408   6.2120000  63.1549408 108.6519408   5.9530000
  74.3059408 118.7819408   7.3720000  74.7559408 118.1469408   7.9280000
  73.9669408 118.2639408   6.6420000  84.3189408 114.7159408  14.1060000
  84.8969408 113.9829408  13.8980000  84.5489408 115.3919408  13.4680000
  66.4959408 108.9039408   2.3800000  65.9039408 109.5189408   1.9470000
  65.9969408 108.0889408   2.4350000  67.2649408 113.0889408   3.3920000
  67.5729408 113.8519408   2.9040000  67.6459408 113.1919408   4.2640000
  75.4449408 115.1009408  14.0140000  76.2459408 115.2109408  13.5020000
  75.0809408 114.2679408  13.7140000  69.1669408  95.4379408   5.7480000
  68.8509408  95.6709408   4.8750000  69.4189408  94.5179408   5.6750000
  64.2729408 110.1469408  12.5690000  63.8439408 110.9559408  12.8460000
  65.0339408 110.0699408  13.1450000  63.2469408 105.4839408   3.2100000
  63.6359408 106.1419408   2.6340000  63.7999408 105.4919408   3.9910000
  64.1789408 107.7809408   8.9290000  64.2309408 108.1619408   8.0530000
  63.5919408 107.0319408   8.8310000  71.1639408 119.3629408  14.0990000
  71.9599408 119.0219408  14.5070000  70.8289408 120.0059408  14.7250000
  71.2709408 119.4239408   0.7540000  71.1439408 119.1009408  -0.1380000
  70.7259408 120.2099408   0.8040000  66.7049408 114.8669408   7.0240000
  67.3139408 114.3839408   6.4660000  66.0519408 115.2189408   6.4190000
  60.7809408 107.7779408   3.0700000  61.3749408 107.8329408   3.8190000
  61.3059408 108.0689408   2.3250000  66.9129408 116.0559408  13.0170000
  66.7609408 116.9919408  13.1450000  67.8609408 115.9539408  13.1010000
  69.9689408 115.5049408  11.5150000  70.0609408 116.2039408  12.1630000
  69.5309408 115.9229408  10.7730000  72.8559408  92.0519408   9.6080000
  73.6339408  91.5559408   9.8640000  72.6389408  92.5739408  10.3800000
  70.9059408 112.2719408   1.9450000  70.8709408 111.3879408   1.5790000
  70.4339408 112.8129408   1.3120000  60.6149408 104.7429408   2.4330000
  59.9859408 105.4539408   2.5520000  61.4659408 105.1429408   2.6100000
  75.8529408 113.8829408   7.9390000  75.9139408 113.7729408   6.9900000
  76.7569408 114.0099408   8.2250000  64.3649408 112.5619408  10.9050000
  63.8259408 113.0119408  11.5560000  65.0559408 113.1889408  10.6910000
  71.6299408 113.2589408  11.2250000  71.9139408 113.2529408  10.3110000
  70.9499408 113.9319408  11.2610000  63.3079408 112.3489408  14.1740000
  63.6449408 113.1049408  13.6930000  63.8179408 112.3319408  14.9840000
  80.0859408  93.0319408   1.4180000  80.4329408  92.3479408   0.8450000
  79.2249408  92.7079408   1.6830000  79.2209408 118.9019408   9.3070000
  78.6819408 119.2899408   9.9960000  78.5979408 118.6619408   8.6210000
  60.7819408 106.6869408  15.9170000  60.1779408 106.2529408  16.5200000
  60.3069408 107.4619408  15.6180000  66.7389408 114.1779408   9.9850000
  66.8389408 115.0859408  10.2700000  66.8689408 114.2079408   9.0370000
  70.4329408  91.4439408  15.7220000  70.5989408  91.4719408  16.6650000
  70.7079408  92.3039408  15.4050000  63.3309408 109.3729408  18.2010000
  62.4419408 109.5659408  18.5000000  63.8949408 109.6769408  18.9110000
  86.3379408  98.5209408  14.7070000  85.9319408  99.3879408  14.7270000
  85.5999408  97.9109408  14.7000000  63.1059408 111.9459408   8.1800000
  63.4189408 112.7029408   8.6760000  62.1519408 112.0229408   8.2010000
  72.0659408 118.8869408   9.7040000  71.2279408 118.5389408   9.3980000
  72.5209408 119.1529408   8.9050000  70.8659408 108.4719408   2.7640000
  70.6719408 109.4039408   2.8690000  71.5619408 108.2989408   3.3990000
  73.6439408  90.4429408   1.8470000  72.8629408  90.2199408   1.3410000
  73.6489408  91.3999408   1.8730000  63.1739408  90.5829408   4.5740000
  64.1289408  90.6499408   4.5680000  62.8779408  91.4079408   4.9580000
  69.4209408 111.4549408   7.9740000  68.8169408 111.4819408   8.7160000
  70.2109408 111.8929408   8.2920000  88.8549408 113.9129408  10.4620000
  88.1329408 113.2899408  10.3720000  88.5459408 114.5469408  11.1090000
  67.9939408 111.3219408  14.6600000  68.8919408 111.3319408  14.9910000
  67.9779408 112.0019408  13.9870000  85.4639408 115.1709408   8.5830000
  84.5769408 115.4189408   8.3240000  85.9009408 114.9499408   7.7600000
  72.9509408  91.3049408  12.5350000  73.5739408  90.6049408  12.7320000
  72.1069408  90.9639408  12.8300000  89.8429408 116.8959408   8.9490000
  89.2369408 116.1979408   8.6960000  90.4319408 116.4839408   9.5810000
  73.2739408 116.0209408   5.5640000  73.0779408 115.8549408   6.4860000
  72.5129408 115.6839408   5.0920000  73.9679408 113.1959408  12.7510000
  73.0609408 113.1179408  12.4530000  74.4749408 113.3119408  11.9480000
  88.8189408 118.9629408  19.5480000  89.3499408 118.7979408  20.3270000
  87.9169408 118.8389408  19.8420000  76.6659408 102.2829408   1.1970000
  76.1439408 103.0379408   0.9240000  76.2319408 101.9649408   1.9890000
  74.5009408 102.8519408   5.8720000  74.3729408 102.6739408   6.8040000
  73.6179408 102.8409408   5.5020000  70.8959408 109.7499408   9.9370000
  70.1039408 109.8069408  10.4710000  71.6099408 109.9329408  10.5480000
  79.0259408 104.6979408   5.6060000  79.1789408 105.5409408   6.0320000
  78.8219408 104.0999408   6.3250000  66.7689408 118.4729408  14.2330000
  67.3599408 119.2059408  14.4070000  65.9639408 118.6979408  14.6990000
  87.3529408  90.3099408  12.8330000  87.5099408  89.6729408  13.5300000
  87.9369408  91.0399408  13.0390000  72.1129408 108.3489408   7.7370000
  71.7449408 108.5769408   8.5910000  71.5649408 108.8179408   7.1070000
  84.6629408 109.5749408  12.4850000  84.9049408 108.8659408  13.0800000
  84.1909408 109.1409408  11.7740000  61.4539408 119.7109408  15.8930000
  61.4329408 120.6619408  16.0040000  62.2849408 119.5399408  15.4500000
  85.2199408 104.8659408   1.3530000  85.3179408 104.0859408   0.8060000
  84.4369408 105.3009408   1.0120000  78.8679408 117.6099408   3.3490000
  79.7269408 117.3279408   3.6620000  78.2529408 117.2769408   4.0020000
  68.3579408  94.1779408   1.8600000  68.4489408  94.8209408   2.5630000
  67.5369408  93.7239408   2.0540000  71.2019408 118.7629408   3.4690000
  71.2119408 119.5939408   3.9450000  71.6049408 118.9659408   2.6240000
  70.2109408 118.4339408  11.9620000  71.0079408 118.2959408  11.4500000
  70.5229408 118.6039408  12.8510000  61.6809408 118.4499408   7.5820000
  62.3499408 117.9409408   7.1260000  60.8959408 117.9039408   7.5440000
  85.9239408 112.7609408  13.2040000  85.7279408 112.7439408  12.2670000
  86.0819408 111.8459408  13.4340000  63.3539408 114.7089408   9.0660000
  63.7559408 115.5449408   9.3010000  62.5179408 114.9489408   8.6650000
  61.4129408 116.7549408   0.3960000  62.1889408 117.0679408  -0.0690000
  61.2349408 115.8959408   0.0140000  89.6089408 117.8679408  15.3230000
  90.1049408 117.1339408  14.9590000  90.2649408 118.5469408  15.4810000
  82.3659408 104.6299408   8.6880000  81.7399408 104.6659408   9.4110000
  83.1379408 105.0919408   9.0160000  61.5119408 109.0599408  13.6060000
  60.8219408 109.4449408  13.0660000  62.0049408 108.5029408  13.0030000
  63.9449408 116.8669408  18.1460000  63.7629408 116.8199408  17.2080000
  64.4529408 117.6719408  18.2510000  72.9559408 111.3659408   6.3640000
  73.4859408 111.8059408   5.6990000  72.4029408 110.7609408   5.8690000
  63.4409408  96.1809408   1.9050000  64.0029408  96.8479408   1.5100000
  63.9759408  95.7989408   2.6010000  77.0119408 113.5979408   0.0990000
  77.4669408 114.3679408   0.4400000  76.1409408 113.9179408  -0.1370000
  78.2589408 102.5979408   7.4360000  77.7069408 101.9699408   6.9700000
  77.6589408 103.0499408   8.0290000  60.1369408  93.5589408   5.8370000
  59.9919408  92.6449408   5.5950000  60.0729408  93.5669408   6.7920000
  64.7479408 116.4299408   2.0810000  64.8309408 115.7089408   2.7050000
  63.9279408 116.8609408   2.3190000  69.2759408 116.4629408  14.7030000
  69.7309408 116.2569408  15.5190000  69.1089408 117.4049408  14.7520000
  83.3719408 119.3539408  16.9710000  83.3079408 118.3989408  16.9860000
  82.9949408 119.6059408  16.1290000  65.5179408 110.8639408   0.6340000
  64.6129408 110.9029408   0.3240000  65.8689408 111.7369408   0.4600000
  65.6269408 115.5319408  22.0670000  66.1349408 115.9269408  21.3580000
  65.2669408 114.7309408  21.6870000  59.8979408 115.6919408  22.9550000
  59.7849408 114.8959408  23.4740000  60.8379408 115.7319408  22.7780000
  68.7329408 115.2859408   2.7840000  69.4529408 115.3559408   2.1580000
  68.2929408 116.1349408   2.7390000  68.4839408 102.6569408  12.7750000
  68.7579408 103.2109408  12.0450000  69.2489408 102.1129408  12.9640000
  64.8689408 112.0059408   4.4930000  65.4839408 112.3369408   3.8380000
  65.3879408 111.9349408   5.2950000  61.1839408 113.8679408   2.2820000
  61.7039408 113.3719408   1.6500000  61.6219408 113.7219408   3.1200000
  61.2759408 110.9209408  22.3260000  61.5259408 110.2529408  21.6880000
  61.9619408 111.5849408  22.2600000  86.5009408 113.4099408   3.8900000
  87.2679408 113.2959408   3.3290000  86.1529408 114.2679408   3.6490000
  66.9049408 119.6589408  24.4020000  67.4049408 119.1249408  25.0190000
  67.5369408 119.8999408  23.7250000  78.4869408  98.0279408   1.6070000
  79.1999408  98.3819408   2.1380000  78.0509408  98.7999408   1.2450000
  74.4529408 110.9099408   3.7780000  74.3679408 110.7669408   2.8350000
  75.0229408 110.2019408   4.0770000  67.1399408 117.5469408  17.6840000
  66.8289408 117.2759408  16.8200000  66.5409408 118.2459408  17.9460000
  75.7979408 118.7229408   3.2530000  75.6619408 117.7969408   3.0530000
  75.1299408 119.1799408   2.7420000  69.0859408  91.1759408   1.1750000
  68.4019408  90.5059408   1.1510000  68.6729408  91.9539408   0.8020000
  68.0329408 119.1679408  10.5370000  68.6119408 118.8459408  11.2270000
  67.5109408 119.8489408  10.9610000  72.8329408 106.8609408  13.8650000
  72.4649408 105.9809408  13.9370000  72.1939408 107.3459408  13.3420000
  74.6709408  97.7959408   5.3550000  75.3629408  97.6749408   4.7050000
  74.3999408  96.9069408   5.5840000  72.2429408  96.3459408   7.8770000
  73.0639408  95.9189408   7.6340000  71.5769408  95.9019408   7.3520000
  84.9609408 105.1169408   6.4150000  84.0719408 105.3439408   6.1410000
  85.4919408 105.8699408   6.1570000  79.3769408  97.5459408  12.7920000
  79.5639408  97.9789408  11.9590000  78.9799408  98.2279408  13.3340000
  89.9389408 102.9329408  20.1570000  89.2409408 103.5489408  19.9330000
  89.5489408 102.0699408  20.0180000  83.4369408  98.0999408  14.6000000
  83.0629408  98.4679408  13.7990000  83.0709408  97.2169408  14.6520000
  87.4789408  93.9939408  10.6530000  87.3369408  94.2939408   9.7560000
  87.7139408  93.0699408  10.5640000  83.8419408  97.9109408  11.1330000
  83.2649408  98.4849408  10.6300000  84.5029408  97.6239408  10.5030000
  84.1399408  91.3499408  10.9420000  83.2239408  91.4689408  11.1920000
  84.1099408  90.7419408  10.2040000  60.0609408  96.7279408  17.5830000
  60.7789408  97.3319408  17.7720000  59.7179408  97.0209408  16.7390000
  79.3879408 102.0239408   1.7080000  78.4449408 102.1189408   1.5730000
  79.5609408 101.0969408   1.5410000  78.6229408  94.8899408  12.5080000
  79.1929408  94.4829408  11.8550000  78.9969408  95.7609408  12.6440000
  88.2209408 113.3229408  14.8680000  87.5639408 113.4529408  14.1850000
  89.0359408 113.1649408  14.3900000  87.7609408  92.7849408   3.9490000
  88.2159408  92.0179408   3.6010000  87.0409408  92.9349408   3.3370000
  75.8699408  97.0169408   0.6600000  75.2029408  96.8519408   1.3270000
  76.4569408  97.6569408   1.0610000  85.9399408  95.4359408  14.7680000
  86.1589408  95.8389408  13.9280000  85.7629408  94.5199408  14.5560000
  85.4509408  96.9699408   5.4990000  84.8859408  96.2069408   5.3780000
  85.7639408  97.1789408   4.6180000  60.4629408 112.8909408  13.2580000
  60.2129408 111.9829408  13.0880000  61.3599408 112.8359408  13.5870000
  78.4659408 113.8039408   9.1880000  78.8379408 114.6159408   8.8460000
  78.9149408 113.1109408   8.7040000  76.7079408  97.0059408   3.8860000
  77.1969408  97.5149408   3.2390000  76.7849408  96.0999408   3.5860000
  65.6159408  93.9159408  17.9620000  66.1299408  93.4149408  18.5940000
  65.1099408  93.2559408  17.4870000  85.2969408  95.6169408  19.7390000
  86.1719408  95.2819408  19.5430000  84.9219408  95.8239408  18.8830000
  65.4309408  98.9249408  13.3460000  64.5449408  98.8439408  13.6980000
  65.4069408  99.7229408  12.8170000  89.5329408  90.6999408   3.3760000
  90.1959408  90.7629408   2.6890000  89.1429408  89.8339408   3.2540000
  61.2429408 115.3819408  11.0890000  61.8839408 114.7989408  10.6820000
  60.4409408 114.8619408  11.1370000  60.5589408  93.4369408   2.1060000
  60.9039408  93.9419408   1.3700000  59.6199408  93.3699408   1.9320000
  85.4529408 113.0009408   6.3470000  86.1639408 112.5919408   6.8410000
  85.8259408 113.1649408   5.4810000  79.8289408 102.1619408   4.8400000
  80.2879408 102.3219408   5.6640000  79.5549408 103.0299408   4.5450000
  85.5609408 101.1319408  15.4750000  85.1189408 100.5969408  16.1340000
  84.8589408 101.6419408  15.0700000  61.6959408 104.5629408   5.6540000
  61.0739408 104.5129408   4.9270000  61.7619408 103.6639408   5.9750000
  86.7429408  93.6139408  17.8620000  86.4659408  94.0829408  17.0750000
  86.0469408  92.9769408  18.0200000  81.6259408 109.4869408   1.2030000
  82.4039408 109.0829408   1.5860000  81.3859408 110.1789408   1.8190000
  89.2179408 113.7659408   5.8380000  89.3659408 114.3189408   5.0710000
  89.4309408 112.8809408   5.5410000  81.2669408  90.7559408   8.5830000
  81.3999408  91.0999408   9.4660000  80.5919408  90.0849408   8.6870000
  87.0549408 110.3509408  13.5330000  86.2059408 110.0659408  13.1960000
  87.4329408 109.5649408  13.9270000  83.3629408  95.0449408  11.8150000
  83.7649408  95.8809408  11.5770000  84.1039408  94.4649408  11.9930000
  84.9759408  91.0289408  20.1130000  84.6729408  91.3969408  19.2830000
  84.4759408  91.4979408  20.7810000  60.1739408 101.8329408  11.6060000
  60.4409408 101.6049408  12.4960000  60.8999408 102.3529408  11.2630000
  85.7369408 109.1459408   8.1800000  84.8499408 109.1279408   8.5390000
  86.1869408 108.4239408   8.6170000  76.6539408  99.5689408   7.1000000
  76.2859408  99.1019408   6.3490000  77.5579408  99.2609408   7.1550000
  78.3429408 115.7469408   6.0430000  78.8659408 114.9999408   5.7510000
  77.5969408 115.7659408   5.4440000  64.7929408 115.8129408   5.2480000
  64.3529408 116.6369408   5.4600000  64.0799408 115.1949408   5.0880000
  83.2419408 113.1659408  10.4920000  82.9709408 113.7249408   9.7630000
  82.5509408 112.5069408  10.5570000  85.7379408 116.5139408  16.0000000
  85.5399408 115.6189408  15.7260000  84.8859408 116.8929408  16.2160000
  60.0309408  96.3349408   7.2890000  59.4529408  95.8939408   6.6650000
  60.7089408  96.7369408   6.7450000  65.4109408  91.6389408  14.1010000
  66.3529408  91.5459408  13.9540000  65.1199408  92.2449408  13.4200000
  72.0409408  93.7889408   0.3090000  71.4489408  94.5119408   0.1020000
  72.7159408  93.8299408  -0.3690000  84.4599408  92.0869408  17.5660000
  84.6979408  92.1839408  16.6440000  83.9199408  91.2969408  17.5930000
  81.2339408  91.7299408  11.0500000  81.0569408  91.7479408  11.9900000
  81.0979408  92.6329408  10.7630000  82.1169408  96.2239408  16.4610000
  81.5759408  96.8179408  16.9810000  81.6809408  96.1839408  15.6100000
  87.9949408  91.5439408   9.2960000  87.6689408  90.7739408   9.7610000
  87.5859408  91.4939408   8.4320000  64.1849408 109.2609408  15.5620000
  63.2749408 109.4589408  15.3410000  64.2369408 109.3929408  16.5080000
  84.5889408 102.8039408  18.0590000  85.3309408 102.2919408  17.7360000
  84.9889408 103.5189408  18.5550000  82.9719408 119.7709408   6.6800000
  82.3179408 120.1079408   7.2920000  83.6439408 119.3789408   7.2390000
  90.0319408  99.3559408   7.3470000  89.0959408  99.2539408   7.5190000
  90.1719408  98.9109408   6.5120000  72.1399408  97.4559408  12.2220000
  73.0799408  97.4309408  12.0430000  71.9669408  96.6499408  12.7080000
  82.2569408 102.3619408  11.4830000  81.7519408 103.1539408  11.2990000
  82.2079408 101.8529408  10.6740000  87.9939408  98.9349408  18.7130000
  88.8849408  98.7869408  19.0320000  87.4419408  98.4079408  19.2910000
  62.6369408  98.9269408   8.6340000  63.0599408  99.1289408   9.4690000
  61.7709408  99.3279408   8.7010000  61.9669408  98.2519408  18.4270000
  62.8179408  98.6559408  18.5950000  61.4089408  98.5619408  19.1400000
  87.5039408  95.9579408  12.6760000  87.6349408  95.1329408  12.2080000
  87.4329408  96.6169408  11.9850000  66.0659408  93.5049408   3.3350000
  65.7129408  94.3689408   3.5490000  65.3759408  93.0859408   2.8200000
  80.1629408  93.2489408   7.1740000  80.7889408  92.6829408   7.6270000
  79.4289408  93.3299408   7.7820000  76.8479408 119.6619408  10.6200000
  76.3209408 119.0759408  11.1630000  76.2789408 119.8849408   9.8840000
  65.8869408 100.2809408   5.3640000  65.6359408 100.8369408   6.1020000
  65.8729408 100.8659408   4.6070000  75.9519408 105.9449408   0.6750000
  75.0699408 105.6069408   0.8280000  76.3909408 105.2529408   0.1800000
  82.1649408  97.7679408   8.6350000  83.0789408  97.4839408   8.6030000
  82.1279408  98.5239408   8.0490000  84.3869408 100.8979408   7.2380000
  84.6949408 101.3449408   8.0260000  85.0989408 101.0059408   6.6070000
  87.1109408  97.9229408  10.7590000  86.6699408  98.6599408  11.1820000
  87.2859408  98.2279408   9.8680000  84.4309408  98.2329408   0.1660000
  84.9999408  98.8329408  -0.3160000  84.9499408  97.9689408   0.9260000
  80.4459408  95.7249408   5.9510000  80.6899408  94.9389408   6.4390000
  81.2809408  96.0999408   5.6680000  83.0409408 115.6989408   7.7480000
  82.2169408 116.1149408   7.4950000  83.0589408 114.8799408   7.2530000
  75.0709408  93.1099408  11.9730000  75.9309408  92.7019408  11.8700000
  74.5769408  92.4959408  12.5170000  61.2549408  96.8109408  14.1630000
  60.3669408  96.7379408  14.5100000  61.5479408  97.6809408  14.4330000
  61.2039408 108.3319408   8.1590000  61.7869408 108.4599408   8.9080000
  60.4139408 107.9419408   8.5330000  85.3289408 103.5029408  11.5810000
  85.0329408 104.2309408  12.1270000  86.1189408 103.1829408  12.0170000
  87.1119408 117.8559408  14.3000000  86.6299408 117.3489408  14.9530000
  88.0099408 117.8809408  14.6300000  84.7879408  92.1149408   5.8990000
  84.1839408  91.3719408   5.9120000  85.6579408  91.7159408   5.9040000
  87.7659408 103.5989408   3.8470000  87.7389408 103.8419408   4.7720000
  87.9009408 104.4269408   3.3850000  65.1689408 104.5189408  16.3780000
  65.8409408 104.4369408  17.0540000  64.4199408 104.9079408  16.8290000
  84.5049408  93.7859408   8.3370000  84.6659408  93.1259408   7.6630000
  85.3689408  93.9629408   8.7110000  87.8919408 105.9599408   1.8140000
  87.0629408 105.4949408   1.6950000  88.2699408 106.0039408   0.9360000
  81.4209408  95.9589408  13.7260000  80.7449408  96.4539408  13.2630000
  82.0389408  95.6999408  13.0420000  64.4059408 100.8699408   1.0480000
  63.6999408 101.4429408   1.3470000  65.1239408 101.0339408   1.6600000
  77.9489408 107.1749408  11.2960000  77.9059408 106.2389408  11.0990000
  78.8179408 107.2979408  11.6800000  85.4809408 101.9639408   9.4060000
  85.1199408 102.5119408  10.1030000  86.2799408 101.5939408   9.7810000
  87.2379408  94.9699408   8.0610000  87.3909408  95.8909408   8.2740000
  87.5609408  94.8749408   7.1650000  76.7859408 108.4209408   1.6810000
  76.7219408 107.5299408   1.3370000  77.4129408 108.8559408   1.1040000
  83.2589408  90.4689408  14.2250000  83.7039408  89.7619408  13.7580000
  83.9489408  91.1049408  14.4120000  68.5139408 108.9249408   4.6940000
  68.4449408 107.9949408   4.9100000  67.8739408 109.0569408   3.9950000
  60.9149408 102.1979408   3.5130000  60.7669408 102.8599408   2.8380000
  60.2449408 101.5339408   3.3490000  76.2619408  95.6629408  11.8050000
  77.1559408  95.3529408  11.9450000  75.7269408  94.8699408  11.8260000
  85.2609408  92.5219408  15.1500000  86.1599408  92.1979408  15.2140000
  85.1129408  92.6349408  14.2110000  86.0369408  99.7699408  12.4210000
  86.3529408  99.1019408  13.0300000  85.0999408  99.8379408  12.6050000
  83.0209408  98.4339408   3.5050000  83.2149408  99.3699408   3.4500000
  83.4379408  98.1499408   4.3190000  78.3969408  91.7669408   4.5070000
  78.1719408  91.0319408   5.0770000  79.3529408  91.8069408   4.5340000
  89.4079408 110.4649408  12.4830000  88.5159408 110.4729408  12.8300000
  89.2959408 110.4509408  11.5330000  79.9099408  98.3669408  10.0660000
  79.9099408  99.2509408   9.6990000  80.6139408  97.9149408   9.6030000
  82.3429408 107.8229408  13.7280000  82.4789408 108.5569408  14.3260000
  81.4959408 107.9999408  13.3180000  60.9789408 101.7839408   6.4660000
  60.8059408 101.5689408   5.5490000  60.8379408 100.9619408   6.9360000
  78.5449408  96.2349408   8.9460000  78.6869408  96.3049408   8.0020000
  78.8589408  97.0669408   9.2990000  77.5829408  92.1169408  11.6990000
  77.5359408  91.9249408  12.6360000  77.4419408  91.2719408  11.2740000
  83.0879408  96.0449408   2.2860000  83.1179408  96.9629408   2.5550000
  82.5769408  96.0479408   1.4770000  79.4299408 119.0179408   0.8690000
  80.3869408 119.0099408   0.8630000  79.1899408 118.4979408   1.6360000
  89.4029408 111.3029408  16.8030000  89.1189408 112.1149408  16.3830000
  90.2919408 111.4879408  17.1050000  89.9999408  93.3119408   8.7350000
  89.2879408  92.6869408   8.8720000  89.6239408  94.1599408   8.9690000
  67.9229408  90.9289408   7.0610000  68.3859408  91.4039408   7.7510000
  67.6119408  91.6119408   6.4670000  86.0629408  96.2019408   2.8730000
  86.7759408  96.4759408   2.2960000  85.4759408  95.7009408   2.3070000
  85.4119408 110.8149408   1.5320000  85.4999408 110.9999408   0.5970000
  86.2239408 110.3649408   1.7650000  88.3659408  95.4669408  19.3010000
  88.8039408  95.9929408  18.6320000  88.0599408  94.6899408  18.8330000
  80.9419408  94.3839408  17.7550000  80.5819408  93.9059408  17.0080000
  81.5239408  95.0359408  17.3640000  89.4049408  99.7769408   1.2160000
  89.7829408  99.6169408   0.3520000  88.8879408  98.9919408   1.4010000
  87.5159408 101.6489408  18.8270000  87.5849408 100.6959408  18.7670000
  87.6049408 101.8379408  19.7610000  81.7639408 103.3609408   2.3840000
  81.7739408 103.7069408   1.4920000  80.9559408 102.8499408   2.4340000
  88.0309408 115.7699408   0.2010000  87.6519408 116.3839408  -0.4290000
  88.7909408 116.2309408   0.5560000  88.7599408 118.1839408   3.0480000
  88.8759408 117.2849408   3.3560000  89.4779408 118.3219408   2.4310000
  82.4329408 114.4709408   0.8190000  81.6569408 114.3989408   1.3750000
  82.5059408 113.6149408   0.3970000  79.5569408 109.2589408   4.7920000
  79.8279408 108.5009408   4.2750000  79.5719408 109.9889408   4.1730000
  86.9399408 100.5709408   5.5480000  87.2969408 101.4359408   5.7460000
  87.5429408 100.2049408   4.9000000  82.1869408  97.3489408  23.2340000
  82.6329408  97.2299408  22.3960000  81.9849408  96.4599408  23.5270000
  61.7139408  94.7479408   4.2270000  61.3929408  94.3309408   3.4270000
  61.0859408  94.4889408   4.9010000  86.7119408 118.8939408   1.2240000
  87.5319408 118.5429408   1.5710000  86.3319408 119.3829408   1.9540000
  87.4089408 118.0439408  28.3580000  86.8659408 118.5749408  28.9420000
  88.0689408 118.6529408  28.0260000  84.1759408 108.5089408   1.7660000
  84.5339408 109.3739408   1.5650000  84.8279408 108.1069408   2.3410000
  85.2449408 105.1359408  19.2390000  84.6809408 105.3399408  19.9860000
  85.0279408 105.8009408  18.5860000  87.8889408  92.9389408   0.7890000
  87.1389408  92.3659408   0.9500000  87.5709408  93.8159408   1.0000000
  89.4139408  93.1659408  16.0720000  89.2369408  92.3849408  16.5970000
  88.9069408  93.8589408  16.4960000  84.0009408  94.7069408   5.0710000
  83.8849408  94.5229408   4.1390000  84.2479408  93.8649408   5.4530000
  83.0969408  97.0939408  20.7320000  83.5719408  97.7899408  20.2780000
  83.5829408  96.2959408  20.5220000  81.2829408  94.2129408  10.2370000
  82.1709408  94.4309408  10.5200000  80.9569408  95.0169408   9.8310000
  65.2779408 101.5559408   7.5480000  64.8449408 100.9229408   8.1220000
  65.5749408 102.2489408   8.1370000  66.0519408  96.0389408  12.9900000
  66.7619408  95.9259408  12.3580000  65.9799408  96.9859408  13.1040000
  60.5089408  99.7659408  13.8980000  59.8269408  99.7809408  14.5700000
  60.2249408  99.0889408  13.2830000  63.1369408 105.9089408  17.4420000
  63.2879408 106.7359408  17.8990000  62.3239408 106.0479408  16.9560000
  84.1139408  93.7159408  21.1230000  84.5879408  94.4759408  20.7840000
  84.5419408  93.5189408  21.9560000  73.7419408  96.4529408  15.6390000
  74.2449408  96.8479408  14.9270000  73.4279408  97.1979408  16.1520000
  77.2159408  92.2419408  14.2630000  77.4569408  91.6839408  15.0030000
  76.9959408  93.0849408  14.6600000  87.4739408  98.2959408   7.3770000
  87.0789408  99.0559408   6.9490000  87.4529408  97.6089408   6.7110000
  64.6389408  98.2059408   0.3610000  64.5499408  99.1419408   0.5400000
  65.5799408  98.0399408   0.4160000  63.5789408  95.2939408  14.7230000
  64.2869408  95.7469408  14.2640000  62.8469408  95.9109408  14.7040000
  62.4339408 119.4479408  21.3220000  61.7669408 118.7629408  21.3040000
  62.1439408 120.0829408  20.6670000  61.7099408  94.5589408  17.3620000
  61.2679408  94.1129408  16.6390000  61.0809408  95.2169408  17.6580000
  63.7859408  93.1389408   5.5410000  64.7399408  93.2159408   5.5740000
  63.5029408  93.8839408   5.0110000  78.5159408 115.7009408   0.7170000
  78.6129408 116.6029408   1.0230000  79.1969408 115.5999408   0.0510000
  84.3199408 105.3179408  13.4330000  83.7379408 106.0469408  13.2200000
  84.8819408 105.6559408  14.1310000  82.5469408 105.5769408   4.2880000
  81.8889408 106.0879408   3.8160000  82.4899408 104.7009408   3.9070000
  79.5539408  90.0589408  17.2370000  79.8519408  90.3489408  16.3750000
  78.6799408  90.4369408  17.3290000  81.9709408 119.7309408   4.2900000
  81.4919408 120.5529408   4.3860000  82.2929408 119.5359408   5.1700000
  76.2369408  92.5929408   7.0360000  76.4979408  91.7169408   6.7530000
  77.0569408  93.0199408   7.2820000  77.8549408  93.6489408   8.8230000
  78.0219408  94.5789408   8.9790000  77.6949408  93.2839408   9.6930000
  80.3289408 114.1079408   2.8240000  79.6049408 114.5969408   2.4350000
  80.2499408 114.2699408   3.7640000  81.6989408  90.0119408  19.4060000
  82.3109408  89.7979408  18.7010000  80.9559408  90.4209408  18.9620000
  87.1489408 111.4149408   8.1260000  87.0169408 111.9989408   8.8730000
  86.3659408 110.8649408   8.1090000  81.1139408  92.1109408   4.7390000
  81.1109408  92.6599408   5.5240000  81.5609408  92.6399408   4.0780000
  61.0329408 115.6039408  13.9710000  60.2089408 115.2399408  14.2930000
  61.2309408 115.0919408  13.1870000  61.9339408 119.6879408  18.6420000
  62.2469408 118.7839408  18.6550000  61.5109408 119.7829408  17.7880000
  61.1559408 108.4609408  20.0400000  60.2709408 108.7809408  19.8660000
  61.0349408 107.5459408  20.2950000  62.0799408 118.3339408   3.5080000
  61.6479408 118.7749408   2.7770000  62.4669408 119.0439408   4.0210000
  77.4589408 109.6149408   6.9330000  76.5709408 109.2699408   7.0270000
  77.7209408 109.3639408   6.0470000  86.6749408 107.5639408  13.5590000
  86.2789408 107.7839408  14.4030000  86.8119408 106.6169408  13.5990000
  79.9319408 113.5469408   5.4520000  79.4589408 112.7149408   5.4690000
  80.8459408 113.3059408   5.6030000  81.5259408 117.0239408   3.9340000
  81.8329408 116.7029408   3.0860000  81.8009408 117.9409408   3.9570000
  82.5659408 113.1829408   6.2490000  82.5139408 112.3989408   6.7960000
  83.4839408 113.2299408   5.9820000  62.7359408 113.2419408  21.7040000
  62.8889408 113.6109408  20.8350000  62.5469408 113.9999408  22.2570000
  85.2289408  93.2469408  12.4100000  84.8559408  92.6399408  11.7710000
  86.0849408  93.4789408  12.0500000  63.0529408 116.7679408  15.5720000
  62.4119408 116.2939408  15.0430000  63.1159408 117.6289408  15.1590000
  84.1119408 111.8259408   3.7350000  84.7569408 112.4489408   4.0690000
  84.4369408 111.5849408   2.8680000  85.3229408 106.5199408   3.7300000
  85.4299408 105.8639408   3.0410000  84.4889408 106.2979408   4.1450000
  81.4969408 107.6769408   8.9910000  80.6869408 107.9649408   9.4120000
  81.2069408 107.1699408   8.2330000  81.3089408 111.2979408  10.9070000
  80.3719408 111.3809408  11.0840000  81.3559408 110.9219408  10.0280000
  79.7129408 111.5399408   7.5910000  79.1179408 110.8719408   7.2500000
  80.5109408 111.0599408   7.8100000  83.7039408 107.7479408  10.5130000
  84.1529408 106.9339408  10.2860000  82.9529408 107.7799408   9.9200000
  87.4709408 115.8359408   6.5070000  87.7579408 114.9329408   6.6370000
  87.3959408 115.9299408   5.5570000  87.1539408 115.2229408  18.8610000
  87.2309408 114.5909408  18.1470000  87.9429408 115.7599408  18.7930000
  88.9979408 105.2499408  17.3840000  88.6679408 105.0439408  18.2580000
  88.5579408 104.6249408  16.8080000  85.5159408  92.1409408   2.2740000
  84.6969408  92.6339408   2.2290000  85.2789408  91.3189408   2.7030000
  87.8379408 106.4779408   4.9610000  87.1649408 106.4449408   4.2810000
  88.2269408 107.3489408   4.8720000  71.7949408  94.1809408  15.4660000
  71.0579408  94.3869408  16.0420000  72.4969408  94.7619408  15.7580000
  84.6279408 119.7129408   3.2650000  83.6809408 119.5999408   3.3410000
  84.9819408 119.3039408   4.0550000  84.1549408 118.4689408   8.6710000
  84.9869408 117.9959408   8.6860000  83.5239408 117.8559408   9.0480000
  87.6299408 118.3429408   7.5860000  87.5669408 117.3909408   7.5050000
  87.5549408 118.5079408   8.5260000  86.7179408 113.2369408  17.1170000
  87.0469408 113.5299408  16.2670000  86.4409408 112.3329408  16.9690000
  88.6429408 113.4169408   2.1320000  89.5469408 113.7219408   2.2000000
  88.2299408 114.0239408   1.5180000  89.7119408 117.0349408  18.1520000
  89.5509408 117.4989408  17.3300000  89.2639408 117.5589408  18.8150000
  64.8129408 110.6049408  20.3340000  64.8989408 111.5329408  20.5520000
  64.8869408 110.1529408  21.1740000  85.3029408 116.0099408  11.7730000
  85.0519408 115.5969408  10.9470000  84.6769408 116.7259408  11.8830000
  75.4609408 113.4619408   3.0360000  75.9439408 113.2799408   2.2300000
  75.3659408 112.6069408   3.4560000  73.5109408 117.9189408  15.3630000
  74.4469408 117.8499408  15.5500000  73.2639408 117.0499408  15.0470000
  85.1669408 115.1589408   1.8110000  84.2559408 114.8679408   1.8270000
  85.3879408 115.2049408   0.8810000  81.1539408 117.1659408   6.5480000
  81.4189408 116.9389408   5.6570000  81.5359408 118.0299408   6.7000000
  76.0469408  94.5639408  15.7710000  76.0809408  94.5099408  16.7260000
  75.4529408  95.2939408  15.5940000  62.8799408 117.4629408  12.2670000
  62.0239408 117.0379408  12.2150000  63.2679408 117.3299408  11.4030000
  88.6919408 109.2009408   3.8620000  89.5599408 108.8229408   3.7170000
  88.1619408 108.8679408   3.1380000  87.3199408 108.8899408   1.5420000
  87.8129408 109.1749408   0.7720000  87.3469408 107.9339408   1.5040000
  60.1709408 115.8719408   3.6420000  60.6029408 115.3299408   2.9810000
  60.8439408 116.4929408   3.9200000  81.9069408 110.2649408   8.2860000
  81.7919408 109.3209408   8.3890000  82.4119408 110.3589408   7.4790000
  87.3569408  91.1799408   6.2670000  87.6309408  91.6629408   5.4870000
  88.0139408  90.4909408   6.3660000  78.4929408 110.8929408  11.3400000
  78.2899408 110.2629408  10.6490000  77.8709408 111.6069408  11.2050000
  87.5929408 118.9229408  10.4380000  87.4519408 119.3709408  11.2720000
  88.5019408 118.6269408  10.4740000  69.8979408 118.3239408  17.5680000
  70.5479408 117.6229408  17.5210000  69.0609408 117.8869408  17.4100000
  60.6229408 115.0849408  19.8260000  61.5509408 114.8679408  19.9130000
  60.5909408 115.7159408  19.1080000  89.5049408  99.6089408   3.9390000
  89.2369408  99.4409408   3.0360000  90.3389408  99.1489408   4.0320000
  84.9399408 118.5519408  12.8940000  85.6679408 118.0659408  13.2810000
  85.3499408 119.3119408  12.4820000  86.2609408 110.5759408  16.5330000
  85.9599408 109.7359408  16.1870000  87.1519408 110.4039408  16.8380000
  60.9209408 119.9589408   9.9480000  61.4189408 119.3979408   9.3520000
  60.0779408 120.0829408   9.5120000  60.1289408  90.2789408   6.1440000
  60.1339408  90.2069408   5.1890000  60.6739408  89.5509408   6.4420000
  80.1059408 116.3139408   8.9570000  80.3829408 116.3689408   8.0430000
  79.8789408 117.2129408   9.1940000  77.8029408  91.4979408   2.0150000
  77.8179408  91.3079408   2.9530000  77.9959408  90.6579408   1.5970000
  81.2849408 111.4409408   3.2030000  82.1909408 111.6019408   3.4660000
  80.9289408 112.3109408   3.0260000  84.8339408 108.1349408  15.5300000
  85.1179408 107.2749408  15.8380000  84.2629408 108.4619408  16.2250000
  85.9399408 113.0769408  10.1740000  85.0409408 112.8989408  10.4490000
  85.8779408 113.8789408   9.6550000  60.5509408 113.0329408   8.3860000
  60.1859408 113.4379408   7.6000000  59.8569408 113.1109408   9.0410000
  86.0789408 118.6559408   5.3270000  86.5179408 118.9459408   6.1270000
  86.5309408 117.8469408   5.0860000  81.9989408 117.5469408   1.0180000
  82.9239408 117.6119408   0.7810000  81.7279408 116.6889408   0.6910000
  77.6129408 110.7449408   3.2240000  77.4149408 109.8939408   2.8320000
  77.7729408 111.3209408   2.4770000  88.7029408 113.2359408  20.3090000
  89.5569408 113.6369408  20.1500000  88.0819408 113.8059408  19.8540000
  89.3329408 110.1069408   9.6110000  90.1389408 110.5079408   9.2850000
  88.7129408 110.1949408   8.8870000  62.8429408 115.7119408  23.1490000
  63.7689408 115.4969408  23.0340000  62.8479408 116.5679408  23.5780000
  89.9059408 118.0329408  21.8660000  89.3759408 118.3819408  22.5830000
  90.0419408 117.1129408  22.0930000  63.7959408  92.6399408   1.5360000
  63.1589408  93.0979408   0.9870000  63.2689408  92.0539408   2.0780000
  80.7379408  93.9019408  20.2470000  80.8629408  93.9519408  19.3000000
  81.6089408  94.0529408  20.6130000  89.0199408 118.8129408  24.3330000
  89.8619408 119.1639408  24.6250000  88.8459408 118.0819408  24.9260000
  86.1579408 116.4039408   3.9090000  85.6669408 117.2129408   4.0520000
  85.8099408 116.0549408   3.0890000  63.1729408 119.6979408  23.8650000
  62.8949408 119.4999408  22.9710000  63.6089408 120.5479408  23.7990000
  84.4219408  99.4159408  20.1160000  85.2529408  99.6309408  20.5400000
  83.7539408  99.7569408  20.7110000  62.7039408 111.1609408   0.5350000
  61.8629408 111.6189408   0.5440000  62.8899408 111.0209408  -0.3940000
  83.5929408 110.4459408   6.1030000  84.4549408 110.0469408   6.2220000
  83.6239408 110.8299408   5.2270000  65.0389408 110.2599408  23.3180000
  65.4329408 110.8059408  23.9980000  64.2329408 109.9279408  23.7140000
  82.3159408  90.6029408   0.0200000  82.8489408  90.3259408   0.7650000
  82.9519408  90.8169408  -0.6630000  60.8689408  96.2169408   0.9050000
  61.1979408  96.6709408   0.1290000  61.6129408  96.1979408   1.5060000
  72.9309408 115.5519408  44.1980000  73.8639408 115.3599408  44.1090000
  72.5239408 115.1209408  43.4470000  69.6549408 114.0029408  60.1860000
  69.0479408 114.5939408  59.7410000  70.5229408 114.3469408  59.9750000
  64.4319408 118.7859408  56.2340000  64.8979408 118.1089408  55.7430000
  63.7839408 119.1269408  55.6170000  66.8749408 116.9259408  39.7580000
  67.0919408 117.8089408  40.0560000  67.0169408 116.9499408  38.8120000
  71.3659408 110.8169408  42.9800000  71.3449408 111.5859408  42.4090000
  72.2869408 110.5579408  42.9990000  70.9679408 108.3959408  45.9660000
  71.6029408 107.8829408  45.4660000  70.1389408 107.9329408  45.8490000
  66.1979408 118.7859408  37.3920000  65.6229408 119.3219408  37.9370000
  66.9389408 119.3569408  37.1890000  64.3569408 114.6489408  43.1330000
  65.1819408 115.0809408  42.9100000  63.8739408 115.2999408  43.6410000
  69.2219408 119.9579408  49.5540000  69.1209408 119.3189408  48.8490000
  69.7729408 120.6449408  49.1780000  65.8979408 116.1729408  45.7840000
  64.9769408 116.4009408  45.6590000  66.2559408 116.1269408  44.8980000
  63.5469408 119.1949408  44.3880000  63.4529408 118.7309408  43.5560000
  64.0779408 119.9629408  44.1760000  69.0259408 106.3989408  45.6100000
  68.7289408 106.0099408  46.4320000  68.4029408 106.0809408  44.9560000
  73.9419408 117.7469408  41.2050000  73.6119408 117.6369408  42.0970000
  73.2129408 118.1429408  40.7270000  74.0549408 110.7059408  49.8650000
  73.1819408 110.5199408  50.2090000  74.1139408 110.1809408  49.0660000
  68.3729408 113.4639408  43.1860000  69.1639408 113.9339408  42.9220000
  67.6539408 113.9979408  42.8490000  64.0379408 117.2559408  39.9530000
  64.9729408 117.0479408  39.9550000  63.9999408 118.1869408  39.7350000
  67.8799408 116.0279408  53.7110000  68.5289408 116.2299408  53.0370000
  67.0729408 115.8609408  53.2240000  69.1499408 119.6889408  52.5040000
  69.9349408 120.2339408  52.5540000  69.1679408 119.3219408  51.6200000
  63.0389408 117.9559408  58.5700000  63.2659408 117.7619408  57.6600000
  62.9049408 118.9029408  58.5870000  68.8229408 109.2789408  58.8730000
  69.0599408 108.7649408  59.6450000  68.2279408 109.9509408  59.2050000
  60.8779408 119.1329408  31.2170000  61.1779408 119.6449408  30.4660000
  61.0379408 118.2229408  30.9670000  75.9109408 117.6449408  50.9300000
  75.4609408 116.9469408  50.4540000  75.2979408 117.8989408  51.6190000
  77.6369408 120.0739408  52.6510000  77.4279408 119.3739408  52.0330000
  77.3079408 119.7569408  53.4920000  71.1519408 112.9069408  50.7830000
  71.1849408 111.9589408  50.9060000  70.5209408 113.0349408  50.0740000
  71.7279408 110.3879408  51.2710000  71.6209408 109.5149408  50.8940000
  72.3419408 110.2629408  51.9960000  88.0529408 115.8899408  42.2050000
  88.2489408 116.7309408  42.6180000  87.0989408 115.8779408  42.1250000
  64.9999408 119.5199408  48.2440000  65.1339408 119.6689408  49.1800000
  64.6149408 120.3359408  47.9240000  84.3189408 114.7159408  44.1060000
  84.8969408 113.9829408  43.8980000  84.5489408 115.3919408  43.4680000
  65.8519408 117.3879408  59.9390000  65.2559408 117.5509408  59.2070000
  65.3619408 116.8089408  60.5230000  70.3759408 113.4779408  47.1180000
  69.6279408 113.2069408  47.6500000  70.5139408 112.7509408  46.5100000
  75.4449408 115.1009408  44.0140000  76.2459408 115.2109408  43.5020000
  75.0809408 114.2679408  43.7140000  71.1639408 119.3629408  44.0990000
  71.9599408 119.0219408  44.5070000  70.8289408 120.0059408  44.7250000
  66.9129408 116.0559408  43.0170000  66.7609408 116.9919408  43.1450000
  67.8609408 115.9539408  43.1010000  69.9689408 115.5049408  41.5150000
  70.0609408 116.2039408  42.1630000  69.5309408 115.9229408  40.7730000
  64.3649408 112.5619408  40.9050000  63.8259408 113.0119408  41.5560000
  65.0559408 113.1889408  40.6910000  66.7389408 114.1779408  39.9850000
  66.8389408 115.0859408  40.2700000  66.8689408 114.2079408  39.0370000
  72.4839408 116.0199408  59.2340000  72.1589408 115.9759408  60.1330000
  71.7009408 116.1619408  58.7020000  71.2699408 116.0949408  46.5260000
  71.8939408 116.0249408  45.8040000  71.2699408 115.2259408  46.9290000
  67.9939408 111.3219408  44.6600000  68.8919408 111.3319408  44.9910000
  67.9779408 112.0019408  43.9870000  89.8429408 116.8959408  38.9490000
  89.2369408 116.1979408  38.6960000  90.4319408 116.4839408  39.5810000
  67.9659408 113.2009408  54.6000000  68.6309408 112.7009408  54.1270000
  67.9549408 114.0549408  54.1660000  88.8189408 118.9629408  49.5480000
  89.3499408 118.7979408  50.3270000  87.9169408 118.8389408  49.8420000
  66.7689408 118.4729408  44.2330000  67.3599408 119.2059408  44.4070000
  65.9639408 118.6979408  44.6990000  69.7699408 112.6009408  56.6800000
  69.2829408 112.6389408  55.8560000  69.7329408 113.4939408  57.0220000
  61.4539408 119.7109408  45.8930000  61.4329408 120.6619408  46.0040000
  62.2849408 119.5399408  45.4500000  70.2109408 118.4339408  41.9620000
  71.0079408 118.2959408  41.4500000  70.5229408 118.6039408  42.8510000
  61.6809408 118.4499408  37.5820000  62.3499408 117.9409408  37.1260000
  60.8959408 117.9039408  37.5440000  79.3099408 116.6769408  44.0320000
  79.6109408 116.8749408  44.9190000  79.3619408 115.7229408  43.9680000
  89.6089408 117.8679408  45.3230000  90.1049408 117.1339408  44.9590000
  90.2649408 118.5469408  45.4810000  63.9449408 116.8669408  48.1460000
  63.7629408 116.8199408  47.2080000  64.4529408 117.6719408  48.2510000
  73.2799408 112.0519408  45.6120000  72.3279408 111.9589408  45.6370000
  73.5199408 111.8259408  44.7140000  67.1949408 112.4749408  58.1130000
  66.6079408 112.3649408  57.3650000  68.0739408 112.3999408  57.7400000
  69.2759408 116.4629408  44.7030000  69.7309408 116.2569408  45.5190000
  69.1089408 117.4049408  44.7520000  76.4109408 117.9309408  46.0400000
  76.7929408 118.4529408  46.7440000  76.9819408 118.0879408  45.2870000
  63.9199408 113.7329408  57.9040000  63.7749408 112.7969408  57.7640000
  64.6069408 113.7729408  58.5690000  74.6979408 115.7839408  49.6430000
  74.8279408 115.7939408  48.6940000  74.6369408 114.8559408  49.8670000
  70.6369408 111.0749408  45.7480000  71.0509408 110.3259408  46.1760000
  70.8889408 110.9959408  44.8280000  74.6939408 117.6009408  59.4540000
  73.7959408 117.3609408  59.6810000  74.6029408 118.1929408  58.7070000
  68.0119408 115.6129408  59.1090000  67.3469408 115.9979408  59.6800000
  67.5689408 115.4959408  58.2690000  76.3829408 115.0279408  46.5230000
  75.9809408 114.9789408  45.6560000  76.6939408 115.9299408  46.5930000
  59.8979408 115.6919408  52.9550000  59.7849408 114.8959408  53.4740000
  60.8379408 115.7319408  52.7780000  71.3379408 118.9519408  57.8980000
  70.3879408 118.9459408  57.7800000  71.6909408 118.7969408  57.0220000
  67.4129408 116.2019408  50.0570000  67.4249408 116.6489408  49.2110000
  68.2419408 116.4469408  50.4690000  61.9099408 116.0429408  56.4380000
  61.0299408 116.3809408  56.2760000  61.8099408 115.4669408  57.1960000
  66.9049408 119.6589408  54.4020000  67.4049408 119.1249408  55.0190000
  67.5369408 119.8999408  53.7250000  70.1359408 112.0139408  53.1660000
  70.2959408 112.4989408  52.3560000  70.9959408 111.9489408  53.5810000
  67.2789408 116.4109408  56.2950000  66.3539408 116.2849408  56.0820000
  67.7199408 116.4259408  55.4460000  67.1399408 117.5469408  47.6840000
  66.8289408 117.2759408  46.8200000  66.5409408 118.2459408  47.9460000
  68.0329408 119.1679408  40.5370000  68.6119408 118.8459408  41.2270000
  67.5109408 119.8489408  40.9610000  68.4229408 118.5869408  57.7970000
  68.0969408 118.0029408  57.1120000  68.0209408 118.2599408  58.6020000
  60.4629408 112.8909408  43.2580000  60.2129408 111.9829408  43.0880000
  61.3599408 112.8359408  43.5870000  61.2429408 115.3819408  41.0890000
  61.8839408 114.7989408  40.6820000  60.4409408 114.8619408  41.1370000
  82.9719408 119.7709408  36.6800000  82.3179408 120.1079408  37.2920000
  83.6439408 119.3789408  37.2390000  76.8479408 119.6619408  40.6200000
  76.3209408 119.0759408  41.1630000  76.2789408 119.8849408  39.8840000
  87.1119408 117.8559408  44.3000000  86.6299408 117.3489408  44.9530000
  88.0099408 117.8809408  44.6300000  89.4029408 111.3029408  46.8030000
  89.1189408 112.1149408  46.3830000  90.2919408 111.4879408  47.1050000
  88.7599408 118.1839408  33.0480000  88.8759408 117.2849408  33.3560000
  89.4779408 118.3219408  32.4310000  86.7119408 118.8939408  31.2240000
  87.5319408 118.5429408  31.5710000  86.3319408 119.3829408  31.9540000
  62.4339408 119.4479408  51.3220000  61.7669408 118.7629408  51.3040000
  62.1439408 120.0829408  50.6670000  81.9709408 119.7309408  34.2900000
  81.4919408 120.5529408  34.3860000  82.2929408 119.5359408  35.1700000
  79.7779408 113.9979408  43.5600000  80.2779408 114.1409408  42.7560000
  80.3799408 113.5269408  44.1360000  61.0329408 115.6039408  43.9710000
  60.2089408 115.2399408  44.2930000  61.2309408 115.0919408  43.1870000
  61.9339408 119.6879408  48.6420000  62.2469408 118.7839408  48.6550000
  61.5109408 119.7829408  47.7880000  63.0529408 116.7679408  45.5720000
  62.4119408 116.2939408  45.0430000  63.1159408 117.6289408  45.1590000
  61.2079408 114.3789408  58.9760000  60.7519408 113.5889408  59.2650000
  62.1189408 114.1049408  58.8680000  84.6279408 119.7129408  33.2650000
  83.6809408 119.5999408  33.3410000  84.9819408 119.3039408  34.0550000
  84.1549408 118.4689408  38.6710000  84.9869408 117.9959408  38.6860000
  83.5239408 117.8559408  39.0480000  87.6299408 118.3429408  37.5860000
  87.5669408 117.3909408  37.5050000  87.5549408 118.5079408  38.5260000
  86.7179408 113.2369408  47.1170000  87.0469408 113.5299408  46.2670000
  86.4409408 112.3329408  46.9690000  78.1019408 119.3339408  43.8490000
  78.8249408 119.9569408  43.9170000  78.5209408 118.5029408  43.6270000
  89.7119408 117.0349408  48.1520000  89.5509408 117.4989408  47.3300000
  89.2639408 117.5589408  48.8150000  85.3029408 116.0099408  41.7730000
  85.0519408 115.5969408  40.9470000  84.6769408 116.7259408  41.8830000
  73.5109408 117.9189408  45.3630000  74.4469408 117.8499408  45.5500000
  73.2639408 117.0499408  45.0470000  62.8799408 117.4629408  42.2670000
  62.0239408 117.0379408  42.2150000  63.2679408 117.3299408  41.4030000
  60.1709408 115.8719408  33.6420000  60.6029408 115.3299408  32.9810000
  60.8439408 116.4929408  33.9200000  87.5929408 118.9229408  40.4380000
  87.4519408 119.3709408  41.2720000  88.5019408 118.6269408  40.4740000
  69.8979408 118.3239408  47.5680000  70.5479408 117.6229408  47.5210000
  69.0609408 117.8869408  47.4100000  60.6229408 115.0849408  49.8260000
  61.5509408 114.8679408  49.9130000  60.5909408 115.7159408  49.1080000
  84.9399408 118.5519408  42.8940000  85.6679408 118.0659408  43.2810000
  85.3499408 119.3119408  42.4820000  86.2609408 110.5759408  46.5330000
  85.9599408 109.7359408  46.1870000  87.1519408 110.4039408  46.8380000
  60.9209408 119.9589408  39.9480000  61.4189408 119.3979408  39.3520000
  60.0779408 120.0829408  39.5120000  79.0939408 115.2559408  47.6310000
  78.8449408 115.5209408  48.5160000  78.5189408 114.5169408  47.4310000
  86.0789408 118.6559408  35.3270000  86.5179408 118.9459408  36.1270000
  86.5309408 117.8469408  35.0860000  89.9059408 118.0329408  51.8660000
  89.3759408 118.3819408  52.5830000  90.0419408 117.1129408  52.0930000
  63.1729408 119.6979408  53.8650000  62.8949408 119.4999408  52.9710000
  63.6089408 120.5479408  53.7990000  78.5739408 116.5729408  49.9790000
  79.3969408 117.0059408  50.2050000  77.9349408 116.9379408  50.5900000
  76.0279408 119.2599408  48.5900000  75.0909408 119.1729408  48.4130000
  76.1359408 118.9249408  49.4800000  64.5629408 115.8619408  55.9740000
  63.6279408 116.0279408  56.0910000  64.7009408 114.9909408  56.3480000
  73.1139408 119.2469408  48.1040000  73.4209408 118.6579408  47.4150000
  72.3449408 119.6749408  47.7280000  64.1209408 103.6749408  73.7610000
  64.0209408 104.4239408  74.3480000  64.6659408 103.0579408  74.2490000
  79.4019408 107.0039408  63.4620000  79.3069408 106.1259408  63.8320000
  78.6369408 107.1089408  62.8970000  66.9639408 117.2739408  64.1330000
  66.2589408 116.7169408  64.4630000  66.9889408 118.0129408  64.7410000
  81.1249408  91.1489408  81.7350000  80.9649408  90.2999408  81.3230000
  81.6349408  91.6379408  81.0890000  66.7109408 108.7099408  81.4700000
  66.3839408 109.3649408  82.0880000  67.6529408 108.8729408  81.4250000
  71.8849408 101.9679408  72.0810000  71.2899408 101.2449408  72.2800000
  72.7569408 101.5759408  72.1090000  75.1049408 107.8279408  75.6050000
  74.2939408 107.6459408  75.1300000  75.7899408 107.7719408  74.9380000
  60.6359408 104.0729408  68.5360000  59.8129408 104.3929408  68.1640000
  60.9089408 103.3719408  67.9450000  78.8559408 108.6129408  69.2840000
  78.4689408 108.1719408  70.0410000  78.1489408 109.1559408  68.9360000
  69.0639408  98.6819408  77.8260000  68.4579408  98.2489408  78.4280000
  69.3939408  97.9759408  77.2700000  71.2259408 101.3479408  65.7040000
  70.6419408 101.7979408  66.3140000  71.6789408 100.6969408  66.2400000
  77.4669408 105.2269408  77.9080000  77.9479408 105.1439408  78.7320000
  78.1319408 105.1079408  77.2300000  65.6149408 103.6859408  68.9500000
  65.7649408 103.7169408  69.8950000  64.7539408 104.0859408  68.8300000
  89.3079408 108.9599408  75.2020000  89.6479408 109.5329408  75.8900000
  89.8979408 109.0979408  74.4610000  72.9309408 115.5519408  74.1980000
  73.8639408 115.3599408  74.1090000  72.5239408 115.1209408  73.4470000
  70.6849408 105.9839408  66.6650000  71.1339408 106.8249408  66.7490000
  69.8769408 106.0929408  67.1670000  88.7999408  99.9389408  75.7730000
  87.8609408  99.9999408  75.5990000  88.8569408  99.5959408  76.6650000
  62.3889408 110.7699408  63.8460000  63.1819408 111.3059408  63.8470000
  62.6729408 109.9199408  64.1820000  77.9779408 104.4559408  70.6650000
  77.2519408 104.3639408  70.0480000  77.7039408 103.9559408  71.4340000
  76.9329408 112.0279408  73.3670000  77.2779408 112.9039408  73.1980000
  77.6629408 111.4399408  73.1730000  71.7599408 113.1179408  68.5430000
  71.6899408 113.8819408  67.9720000  72.0759408 112.4179408  67.9710000
  74.5309408 116.0489408  61.8910000  75.1549408 116.0429408  61.1650000
  74.9719408 115.5639408  62.5890000  64.3779408  91.6949408  76.6380000
  63.4469408  91.8319408  76.4640000  64.7679408  91.5709408  75.7730000
  71.0189408  92.1809408  78.1460000  70.7569408  93.1019408  78.1390000
  71.6919408  92.1279408  78.8240000  75.1549408  90.6799408  68.8720000
  74.7649408  91.4279408  68.4200000  75.0899408  89.9599408  68.2450000
  75.4189408 104.0349408  73.0950000  74.8099408 103.9809408  73.8320000
  74.8679408 104.2559408  72.3440000  66.8749408 116.9259408  69.7580000
  67.0919408 117.8089408  70.0560000  67.0169408 116.9499408  68.8120000
  84.3849408  99.4109408  77.3650000  84.7209408  98.5179408  77.2950000
  84.2909408  99.5589408  78.3060000  67.7939408 103.7699408  67.0920000
  67.1589408 103.5089408  67.7590000  68.3649408 103.0079408  66.9930000
  69.0859408  92.8069408  72.3010000  69.2659408  93.2629408  71.4790000
  69.7729408  93.1059408  72.8980000  75.8509408 103.9929408  69.0110000
  75.1649408 104.5659408  68.6690000  75.4019408 103.1709408  69.2080000
  67.6489408 107.3009408  72.5020000  67.1329408 107.8939408  73.0490000
  67.6139408 106.4609408  72.9600000  81.2289408 110.5009408  74.9470000
  80.8759408 111.0379408  75.6570000  81.9479408 111.0209408  74.5870000
  71.1919408 116.2969408  61.5580000  71.2509408 117.2469408  61.6600000
  71.6389408 115.9449408  62.3270000  64.6869408  93.6109408  72.3470000
  63.8339408  93.9499408  72.0730000  65.2309408  94.3909408  72.4540000
  71.3659408 110.8169408  72.9800000  71.3449408 111.5859408  72.4090000
  72.2869408 110.5579408  72.9990000  75.5709408  94.5019408  83.2080000
  76.1229408  95.1429408  82.7600000  75.2669408  93.9189408  82.5130000
  74.5329408 109.5259408  67.8070000  74.0209408 108.9609408  68.3850000
  73.9069408 110.1799408  67.4950000  64.9169408 104.0799408  66.0540000
  65.2429408 103.2809408  66.4690000  64.3959408 104.5079408  66.7330000
  71.9419408  94.9309408  78.4310000  72.8109408  95.3169408  78.3240000
  71.7659408  94.9919408  79.3700000  62.9999408 113.7209408  64.9930000
  62.5599408 113.1309408  65.6050000  63.7909408 113.2499408  64.7310000
  69.3909408  95.9979408  73.5600000  68.4679408  95.8209408  73.7410000
  69.5449408  95.6099408  72.6990000  66.4589408 109.0469408  74.2110000
  65.7969408 108.9559408  74.8960000  67.0899408 109.6709408  74.5690000
  72.7269408  94.7419408  73.0350000  73.5559408  94.2759408  72.9230000
  72.3699408  94.4009408  73.8560000  70.9189408 105.5149408  71.9010000
  70.0709408 105.1079408  71.7250000  70.7289408 106.4519408  71.9560000
  71.2779408  98.6519408  69.3500000  71.3409408  97.9429408  69.9910000
  70.6729408  99.2789408  69.7440000  67.3769408 118.8119408  61.6800000
  66.6809408 118.2869408  61.2850000  67.2869408 118.6599408  62.6210000
  75.6899408 108.6069408  64.5490000  75.8669408 108.6029408  63.6090000
  76.2479408 107.9129408  64.9010000  69.4119408  98.7209408  66.5640000
  69.9009408  98.4549408  67.3430000  70.0189408  99.2819408  66.0810000
  70.9679408 108.3959408  75.9660000  71.6029408 107.8829408  75.4660000
  70.1389408 107.9329408  75.8490000  69.0729408 100.0809408  69.9790000
  69.3089408 100.3209408  70.8750000  68.1399408  99.8699408  70.0250000
  68.6629408 113.0849408  65.7270000  69.1639408 112.7029408  66.4480000
  69.3049408 113.2099408  65.0280000  72.1909408  93.0269408  66.6490000
  72.5829408  93.5069408  67.3790000  72.8259408  92.3399408  66.4440000
  62.7639408 100.3209408  75.9390000  62.1979408 100.7929408  75.3280000
  62.1579408  99.8679408  76.5260000  63.7929408  95.9289408  78.5460000
  64.5359408  95.3939408  78.2680000  63.0419408  95.5539408  78.0850000
  67.2649408  95.4869408  70.7700000  66.6499408  96.0649408  70.3180000
  67.6409408  94.9459408  70.0760000  78.2059408 101.1969408  71.0920000
  78.7899408 101.1579408  70.3350000  77.3289408 101.0939408  70.7250000
  63.9959408 100.0319408  79.2360000  64.7059408  99.4889408  78.8920000
  64.1359408 100.8909408  78.8370000  73.6049408  99.6929408  63.1680000
  74.0819408  98.9459408  63.5280000  74.2209408 100.4239408  63.2310000
  66.1979408 118.7859408  67.3920000  65.6229408 119.3219408  67.9370000
  66.9389408 119.3569408  67.1890000  76.1629408 110.3279408  69.8410000
  75.8969408 110.1039408  68.9500000  75.7949408 109.6309408  70.3840000
  78.8369408 109.6889408  73.6890000  79.6529408 109.8079408  74.1740000
  79.0429408 109.9709408  72.7980000  67.3569408 104.9479408  74.1060000
  66.7409408 104.6609408  74.7800000  67.7119408 104.1349408  73.7450000
  82.1589408 101.9809408  68.6940000  82.2029408 102.9319408  68.6020000
  82.8179408 101.6489408  68.0840000  69.7979408 103.5629408  80.7020000
  69.9119408 102.6129408  80.6900000  70.2249408 103.8659408  79.9000000
  72.6309408 103.1459408  74.3340000  72.2629408 103.3379408  73.4710000
  72.9819408 102.2589408  74.2530000  70.1429408  98.5439408  62.9460000
  70.7999408  98.6049408  62.2530000  70.5939408  98.8529408  63.7320000
  64.7069408 105.4199408  83.1280000  64.5639408 105.8999408  82.3120000
  64.9709408 106.0909408  83.7570000  62.9149408 106.4549408  74.3630000
  63.5279408 107.1049408  74.7050000  62.2449408 106.3749408  75.0420000
  69.9729408  91.6209408  69.1660000  70.8859408  91.7839408  68.9290000
  70.0159408  91.2549408  70.0490000  72.5159408  99.3919408  67.0440000
  72.9239408  98.9559408  66.2950000  72.6179408  98.7729408  67.7670000
  80.6819408 104.5549408  70.8580000  80.4699408 104.9719408  71.6930000
  79.8309408 104.3559408  70.4670000  65.0659408 102.1979408  78.1450000
  65.8319408 101.7159408  77.8330000  64.6889408 102.5859408  77.3550000
  64.4699408  96.9909408  81.0950000  64.3759408  96.7169408  80.1820000
  64.4599408  97.9469408  81.0610000  76.7989408  98.8369408  81.9130000
  76.1259408  98.2629408  81.5470000  77.3839408  98.2479408  82.3890000
  77.3339408  91.3149408  77.3720000  77.1459408  92.1649408  77.7700000
  76.5919408  90.7639408  77.6200000  64.3569408 114.6489408  73.1330000
  65.1819408 115.0809408  72.9100000  63.8739408 115.2999408  73.6410000
  66.0859408 104.8579408  71.4430000  65.4669408 105.3769408  70.9300000
  65.9959408 105.1919408  72.3360000  73.4409408 106.1729408  68.5040000
  73.3789408 105.9409408  67.5780000  72.7799408 106.8539408  68.6260000
  68.5019408  94.1379408  68.6120000  68.8629408  94.4539408  67.7840000
  68.9809408  93.3279408  68.7890000  69.2219408 119.9579408  79.5540000
  69.1209408 119.3189408  78.8490000  69.7729408 120.6449408  79.1780000
  65.8979408 116.1729408  75.7840000  64.9769408 116.4009408  75.6590000
  66.2559408 116.1269408  74.8980000  80.9309408  98.1219408  77.8530000
  80.4899408  98.4399408  78.6410000  81.2959408  98.9089408  77.4480000
  63.5469408 119.1949408  74.3880000  63.4529408 118.7309408  73.5560000
  64.0779408 119.9629408  74.1760000  69.7719408  92.8839408  65.6410000
  70.6209408  92.7349408  66.0590000  69.7999408  92.3549408  64.8440000
  69.0259408 106.3989408  75.6100000  68.7289408 106.0099408  76.4320000
  68.4029408 106.0809408  74.9560000  84.9449408 100.7089408  82.4340000
  84.4059408 100.1399408  82.9830000  84.3479408 101.3989408  82.1430000
  72.9919408  96.0789408  80.9050000  73.2669408  96.9929408  80.8340000
  73.4549408  95.7489408  81.6750000  79.7759408 107.0209408  66.7930000
  79.6259408 107.7959408  66.2530000  79.1299408 107.0889408  67.4960000
  84.9269408 105.3199408  69.5870000  85.3159408 104.5869408  70.0650000
  85.3279408 105.2809408  68.7190000  65.7419408 101.5499408  72.2860000
  65.5099408 101.7689408  73.1890000  66.5849408 101.9799408  72.1450000
  89.0709408  92.3679408  73.5800000  89.1899408  92.7229408  74.4610000
  89.9599408  92.2269408  73.2550000  75.3469408  97.8619408  73.5700000
  75.5059408  97.1419408  72.9600000  76.2199408  98.1279408  73.8590000
  73.9419408 117.7469408  71.2050000  73.6119408 117.6369408  72.0970000
  73.2129408 118.1429408  70.7270000  62.4759408 103.4329408  71.5170000
  62.9669408 103.3179408  72.3310000  62.3929408 104.3819408  71.4200000
  64.0809408 100.9719408  70.1910000  63.3579408 101.5829408  70.3280000
  64.6869408 101.1519408  70.9110000  63.0199408 106.0899408  71.5960000
  62.9749408 106.1599408  72.5500000  63.1089408 106.9939408  71.2930000
  72.5739408 104.1909408  76.7410000  72.6879408 103.7449408  75.9010000
  73.3929408 104.6689408  76.8720000  69.4949408 105.9309408  63.8740000
  69.7659408 105.7989408  64.7830000  69.9059408 106.7569408  63.6190000
  68.0449408 108.2839408  77.2700000  67.8129408 107.5769408  77.8720000
  68.2419408 107.8409408  76.4450000  68.0199408  91.0509408  74.0630000
  68.1869408  91.8039408  73.4960000  68.5849408  91.1939408  74.8240000
  72.3299408 113.4389408  64.0320000  71.5709408 112.9229408  63.7610000
  73.0749408 113.0059408  63.6160000  63.8559408 118.2669408  66.1100000
  63.5329408 119.1219408  65.8250000  64.7399408 118.4389408  66.4320000
  62.1229408 112.1309408  77.8600000  62.8419408 111.8089408  77.3180000
  62.3069408 113.0629408  77.9750000  65.8029408 106.0779408  64.3120000
  66.5949408 105.6419408  63.9980000  65.6179408 105.6609408  65.1540000
  73.6209408 105.0579408  71.2560000  72.8359408 105.3699408  71.7060000
  73.5009408 105.3309408  70.3470000  66.7349408 100.4089408  76.9120000
  67.6709408 100.2119408  76.8740000  66.3309408  99.5979408  77.2210000
  69.1019408 109.7299408  82.1000000  69.8669408 109.3959408  81.6300000
  69.3469408 110.6199408  82.3550000  68.8879408 110.4159408  61.5990000
  68.2829408 109.7779408  61.9770000  68.7719408 111.2019408  62.1330000
  68.1309408 107.3219408  69.6840000  68.1119408 108.2399408  69.4110000
  67.9969408 107.3509408  70.6310000  74.0549408 110.7059408  79.8650000
  73.1819408 110.5199408  80.2090000  74.1139408 110.1809408  79.0660000
  68.7819408 104.8269408  70.5120000  67.8989408 104.6719408  70.8490000
  68.7299408 105.6859408  70.0920000  85.7759408 105.5769408  75.5950000
  86.5949408 105.4519408  75.1160000  85.8309408 104.9639408  76.3280000
  74.8019408 105.4929408  76.8610000  74.9129408 106.3009408  76.3600000
  75.6729408 105.3059408  77.2110000  87.4529408 102.4809408  72.6510000
  86.9679408 101.6609408  72.7380000  88.3159408 102.2169408  72.3320000
  79.8039408 100.9529408  68.8190000  80.7069408 101.2619408  68.7410000
  79.2889408 101.5889408  68.3220000  73.6759408 102.0399408  68.3110000
  72.9579408 102.4469408  68.7970000  73.3909408 101.1369408  68.1740000
  63.1979408 105.2869408  67.9950000  62.5999408 105.4139408  67.2590000
  62.7259408 104.7069408  68.5910000  73.4919408 100.2479408  75.4210000
  74.1179408 100.9619408  75.5410000  74.0109408  99.5349408  75.0460000
  88.8019408  96.7519408  75.1170000  88.5949408  96.3399408  74.2790000
  87.9779408  97.1509408  75.3980000  66.3509408 102.5299408  80.8020000
  65.7639408 102.6359408  80.0530000  66.8079408 103.3679408  80.8690000
  62.1939408  92.4329408  75.0200000  61.9859408  92.0149408  74.1840000
  62.7589408  93.1699408  74.7850000  80.3539408  91.1919408  74.3940000
  81.2449408  91.0649408  74.0680000  80.3279408  92.1089408  74.6690000
  72.9529408 108.1909408  64.7110000  72.8259408 108.4779408  65.6150000
  73.8859408 108.3269408  64.5450000  71.2079408 103.2309408  69.6310000
  71.4929408 103.1859408  70.5430000  70.4689408 103.8389408  69.6400000
  74.0369408  99.3019408  70.0320000  73.0859408  99.2279408  69.9500000
  74.3769408  98.5189408  69.5980000  73.8409408 105.9929408  79.9150000
  73.3829408 105.6059408  79.1690000  74.1529408 106.8389408  79.5910000
  77.9259408 103.8949408  74.1400000  76.9729408 103.9149408  74.2200000
  78.2449408 104.1439408  75.0080000  80.7849408 101.9599408  77.6010000
  81.3309408 101.2469408  77.2700000  80.9109408 102.6709408  76.9720000
  76.0959408 100.7469408  69.5820000  75.3069408 100.3579408  69.9590000
  76.3329408 100.1619408  68.8630000  71.8799408 101.9409408  63.1400000
  71.5959408 101.9629408  64.0530000  72.2839408 101.0799408  63.0340000
  70.6029408 108.1769408  72.3180000  69.6709408 108.0139408  72.4610000
  70.6839408 109.1309408  72.3230000  76.8019408 110.5669408  75.9690000
  77.5409408 109.9729408  75.8380000  76.7199408 111.0359408  75.1380000
  77.8219408 100.6709408  84.7140000  77.0509408 100.2079408  84.3860000
  78.5589408 100.2549408  84.2680000  87.1529408 103.0869408  76.5300000
  87.5009408 102.5009408  77.2020000  86.4709408 102.5749408  76.0950000
  88.4819408 100.9349408  69.6410000  88.8959408 101.1749408  70.4700000
  88.9019408 101.4979408  68.9910000  74.8989408 116.5689408  68.8670000
  74.8359408 116.8249408  69.7880000  74.8469408 115.6129408  68.8800000
  66.4319408  99.2409408  69.6680000  65.6539408  99.7959408  69.6110000
  66.1929408  98.4429408  69.1960000  74.5639408 101.3319408  72.5050000
  75.3129408 101.9219408  72.4160000  74.8419408 100.5249408  72.0710000
  65.8949408 109.3489408  70.4970000  65.2319408 109.5939408  71.1420000
  65.4229408 108.8129408  69.8600000  70.5329408  94.8369408  71.0850000
  70.4469408  95.5079408  70.4070000  71.3799408  95.0149408  71.4930000
  68.3729408 113.4639408  73.1860000  69.1639408 113.9339408  72.9220000
  67.6539408 113.9979408  72.8490000  68.0019408 103.8009408  64.2870000
  68.6839408 104.4149408  64.0160000  67.9259408 103.9279408  65.2330000
  68.5919408 110.0079408  71.6570000  67.6919408 109.6829408  71.6220000
  68.5009408 110.9549408  71.7650000  68.5059408 119.5499408  64.7200000
  69.2599408 119.8159408  64.1930000  68.6619408 119.9459408  65.5770000
  64.0379408 117.2559408  69.9530000  64.9729408 117.0479408  69.9550000
  63.9999408 118.1869408  69.7350000  69.6499408 101.8419408  67.8760000
  70.4039408 102.2779408  68.2730000  69.2779408 101.3139408  68.5820000
  77.8409408 101.3329408  81.0730000  77.5779408 100.4969408  81.4570000
  77.0239408 101.8229408  80.9800000  76.4069408  93.6289408  79.0480000
  77.1099408  94.2789408  79.0450000  76.1969408  93.5069408  79.9740000
  71.6449408  98.1269408  83.6070000  71.9199408  97.4939408  84.2710000
  71.9309408  98.9729408  83.9510000  78.3389408  98.6359408  77.0160000
  78.1949408  99.4509408  77.4970000  79.2549408  98.4159408  77.1850000
  73.4879408  98.3599408  77.7820000  72.5719408  98.4729408  78.0380000
  73.7179408  99.1799408  77.3450000  65.3919408  99.8369408  81.5440000
  64.4879408 100.0839408  81.7380000  65.8819408 100.6569408  81.5990000
  75.6989408 103.6459408  81.5090000  74.9289408 104.2119408  81.4530000
  75.7449408 103.3939408  82.4310000  81.4999408 110.8909408  81.6630000
  81.5299408 111.8449408  81.5890000  81.2169408 110.5929408  80.7990000
  76.1989408 102.7839408  84.3270000  76.9519408 102.3809408  84.7590000
  75.5079408 102.1229408  84.3830000  80.3079408 102.6819408  81.5200000
  79.5659408 102.7069408  82.1230000  80.0339408 103.2229408  80.7790000
  67.8799408 116.0279408  83.7110000  68.5289408 116.2299408  83.0370000
  67.0729408 115.8609408  83.2240000  78.4169408 104.7709408  80.7260000
  78.8399408 105.1919408  81.4750000  77.5249408 104.5919408  81.0240000
  74.9759408 105.1649408  83.9550000  75.6309408 105.7189408  83.5300000
  75.4869408 104.4979408  84.4130000  80.1269408 107.4139408  77.2570000
  80.8569408 108.0169408  77.1180000  80.2649408 107.0689408  78.1390000
  77.7229408  99.0149408  74.5310000  78.2079408  99.8399408  74.5330000
  77.7629408  98.7109408  75.4380000  72.1429408 103.0499408  83.4810000
  72.7959408 103.1569408  82.7890000  71.8279408 103.9369408  83.6530000
  69.2999408  94.7489408  76.6790000  68.4779408  94.7659408  76.1890000
  69.0309408  94.7099408  77.5970000  70.2849408  99.8869408  72.5980000
  70.8409408  99.1149408  72.4900000  70.1829408  99.9779408  73.5460000
  77.8369408  95.8009408  78.3520000  78.7399408  95.6199408  78.0890000
  77.7859408  96.7559408  78.3950000  72.3099408 107.8379408  78.4750000
  71.5999408 107.7869408  77.8350000  72.9599408 108.4099408  78.0670000
  81.5769408 100.0929408  73.5580000  80.8019408 100.5149408  73.9290000
  81.6999408 100.5189408  72.7100000  65.6739408 113.6199408  60.0820000
  66.0949408 113.8689408  60.9050000  66.3839408 113.2649408  59.5480000
  65.6639408  98.1749408  78.2520000  66.2629408  97.8789408  78.9380000
  65.1889408  97.3859408  77.9920000  65.9109408  96.2639408  83.1760000
  65.8639408  95.3079408  83.1610000  65.2579408  96.5469408  82.5370000
  80.1159408  93.8369408  75.0270000  80.6079408  94.5009408  74.5440000
  79.2639408  93.8059408  74.5920000  69.1499408 119.6889408  82.5040000
  69.9349408 120.2339408  82.5540000  69.1679408 119.3219408  81.6200000
  69.0229408 100.0999408  83.4030000  68.3649408 100.6929408  83.7660000
  68.5369408  99.3039408  83.1870000  62.6359408  99.1879408  72.6550000
  62.1249408  99.8089408  73.1730000  61.9839408  98.6069408  72.2650000
  70.1199408  91.7629408  63.4120000  69.5699408  91.8339408  62.6310000
  70.9739408  92.0939408  63.1340000  84.7679408  96.0699408  77.1460000
  83.8289408  96.0299408  76.9640000  85.1819408  95.7409408  76.3480000
  65.1569408 101.4689408  75.1180000  64.3929408 101.0489408  75.5120000
  65.9069408 101.0229408  75.5130000  76.3049408 107.8459408  78.6500000
  76.4699408 108.5339408  78.0040000  76.6669408 107.0539408  78.2540000
  71.4229408  91.4139408  82.3640000  71.7979408  91.2949408  83.2370000
  72.1729408  91.6199408  81.8060000  64.3739408  92.0349408  82.5920000
  65.0449408  92.5869408  82.9950000  63.7539408  92.6539408  82.2080000
  67.8019408 106.5439408  67.0640000  67.6149408 105.6139408  67.1890000
  67.8329408 106.9049408  67.9500000  72.7309408 102.2139408  78.9580000
  72.2289408 101.4239408  78.7610000  72.6519408 102.7509408  78.1690000
  67.4109408  98.2469408  82.5390000  67.0039408  97.3889408  82.6570000
  66.8979408  98.6629408  81.8460000  78.8269408  93.5309408  82.3500000
  78.8589408  92.6169408  82.6340000  79.3369408  93.5479408  81.5400000
  73.0339408 104.4019408  63.2410000  73.4299408 104.6769408  62.4150000
  72.6019408 103.5729408  63.0360000  69.2199408 100.8319408  80.8010000
  68.2959408 100.9889408  80.6070000  69.2279408 100.5439408  81.7140000
  68.1889408 107.1529408  83.5900000  69.0689408 107.0679408  83.9560000
  67.9749408 108.0809408  83.6910000  67.2109408  98.0059408  65.3860000
  66.6419408  98.7579408  65.5510000  67.9689408  98.1489408  65.9520000
  90.1159408  98.1649408  71.4220000  90.1929408  97.2509408  71.1470000
  89.2939408  98.4639408  71.0340000  64.8949408 108.8529408  66.4910000
  65.2919408 109.6979408  66.7040000  65.4089408 108.5259408  65.7530000
  60.8779408 119.1329408  61.2170000  61.1779408 119.6449408  60.4660000
  61.0379408 118.2229408  60.9670000  66.9089408  94.5699408  75.4710000
  66.4269408  95.1219408  74.8560000  66.2819408  94.3849408  76.1700000
  76.1519408 106.8349408  66.9130000  75.4469408 106.5409408  66.3350000
  75.7099408 107.0769408  67.7270000  75.4429408  90.1609408  73.2290000
  76.1079408  89.5109408  73.4580000  75.5879408  90.8799408  73.8430000
  84.0269408 109.3799408  81.4100000  84.2849408 108.4959408  81.6720000
  83.1719408 109.5119408  81.8210000  74.3959408 108.1949408  70.7400000
  74.3709408 108.1429408  71.6950000  74.2869408 107.2889408  70.4480000
  64.5679408 102.7609408  83.3450000  64.5269408 103.7069408  83.4870000
  64.8839408 102.6679408  82.4460000  81.5419408  92.2789408  84.3060000
  81.1949408  92.1159408  83.4290000  81.4429408  91.4439408  84.7630000
  74.6329408 113.1429408  70.1660000  74.8209408 113.6079408  69.3500000
  74.7559408 112.2189408  69.9490000  75.3159408 102.0549408  76.3340000
  74.9349408 102.8129408  76.7780000  76.1729408 101.9419408  76.7450000
  82.2929408 107.8109408  83.8080000  82.1829408 107.0259408  84.3450000
  82.7159408 108.4419408  84.3890000  67.2109408 101.8149408  84.3940000
  66.3699408 102.1359408  84.0660000  67.5599408 102.5409408  84.9100000
  60.1669408  98.8079408  80.3710000  59.8829408  98.0049408  80.8070000
  59.9809408  99.5029408  81.0020000  71.3649408  99.9299408  78.7550000
  70.7509408  99.2719408  78.4300000  71.2129408  99.9549408  79.7000000
  74.3869408 110.9349408  61.0510000  73.5169408 111.2199408  60.7720000
  74.8489408 110.7409408  60.2360000  70.7769408  99.9669408  75.3550000
  71.7099408 100.1599408  75.2610000  70.7469408  99.1889408  75.9110000
  79.8279408 105.7489408  73.0870000  80.5869408 105.7009408  73.6680000
  79.2939408 104.9909408  73.3260000  88.4329408  91.3169408  77.7720000
  88.3759408  90.3929408  78.0160000  88.3789408  91.7879408  78.6040000
  76.9629408 106.6139408  82.6300000  76.8069408 107.5369408  82.8310000
  77.8629408 106.5879408  82.3060000  60.8749408  93.4179408  83.9600000
  60.5559408  92.5409408  83.7490000  61.6379408  93.5389408  83.3940000
  73.8929408 109.7199408  77.2500000  73.8199408 110.5249408  76.7370000
  74.7049408 109.3139408  76.9450000  70.5189408  97.1779408  75.9270000
  70.5439408  96.3239408  76.3590000  70.1409408  96.9999408  75.0660000
  75.9109408 117.6449408  80.9300000  75.4609408 116.9469408  80.4540000
  75.2979408 117.8989408  81.6190000  77.6369408 120.0739408  82.6510000
  77.4279408 119.3739408  82.0330000  77.3079408 119.7569408  83.4920000
  67.9469408  97.0969408  79.7360000  67.9239408  96.1409408  79.7090000
  68.7869408  97.3059408  80.1460000  76.8989408 119.9439408  65.6780000
  76.7499408 119.2089408  66.2740000  76.6159408 119.6199408  64.8230000
  69.8299408 117.2289408  65.4010000  68.9329408 117.4469408  65.1470000
  70.3679408 117.5429408  64.6740000  71.1519408 112.9069408  80.7830000
  71.1849408 111.9589408  80.9060000  70.5209408 113.0349408  80.0740000
  71.0869408 115.7069408  67.3250000  70.8939408 116.1889408  68.1280000
  70.7599408 116.2699408  66.6230000  62.6749408 108.7829408  70.9760000
  63.1839408 109.3299408  71.5740000  63.0549408 108.9529408  70.1140000
  73.9669408 105.5319408  65.7910000  74.1179408 104.5939408  65.6770000
  73.3829408 105.7699408  65.0710000  69.7219408 118.0699408  68.6160000
  69.4219408 118.0619408  67.7080000  69.1469408 118.6979408  69.0530000
  71.7279408 110.3879408  81.2710000  71.6209408 109.5149408  80.8940000
  72.3419408 110.2629408  81.9960000  88.0529408 115.8899408  72.2050000
  88.2489408 116.7309408  72.6180000  87.0989408 115.8779408  72.1250000
  64.9999408 119.5199408  78.2440000  65.1339408 119.6689408  79.1800000
  64.6149408 120.3359408  77.9240000  70.5059408 109.8669408  66.1100000
  69.8559408 109.5139408  65.5030000  69.9949408 110.3779408  66.7380000
  63.3269408 114.6049408  79.3680000  64.2059408 114.2289408  79.3230000
  63.4169408 115.4729408  78.9750000  60.0379408 111.4779408  64.6990000
  60.9309408 111.1549408  64.5830000  59.4899408 110.8369408  64.2450000
  75.7609408 115.8819408  64.7460000  75.6409408 115.0999408  64.2060000
  74.9199408 115.9989408  65.1890000  74.2179408 110.3289408  73.1910000
  74.4609408 111.2159408  72.9250000  75.0449408 109.9189408  73.4450000
  77.6079408 111.4719408  81.4500000  77.1129408 112.1989408  81.8280000
  77.2049408 110.6879408  81.8230000  72.8429408 114.9729408  81.9030000
  72.4879408 114.2539408  81.3800000  73.3269408 115.5089408  81.2750000
  64.6779408 112.4899408  76.5850000  65.2769408 113.2359408  76.6160000
  65.2109408 111.7439408  76.8610000  65.7979408 111.3969408  66.7650000
  66.4539408 111.7799408  67.3470000  64.9819408 111.4349408  67.2640000
  77.4849408 117.6719408  67.7400000  76.6389408 117.2889408  67.9700000
  77.8719408 117.0489408  67.1250000  62.3099408 108.7869408  65.5240000
  61.6629408 108.6259408  66.2120000  63.1549408 108.6519408  65.9530000
  74.3059408 118.7819408  67.3720000  74.7559408 118.1469408  67.9280000
  73.9669408 118.2639408  66.6420000  84.3189408 114.7159408  74.1060000
  84.8969408 113.9829408  73.8980000  84.5489408 115.3919408  73.4680000
  66.4959408 108.9039408  62.3800000  65.9039408 109.5189408  61.9470000
  65.9969408 108.0889408  62.4350000  76.4369408 109.0669408  81.2430000
  76.5039408 108.3559408  80.6060000  75.6939408 109.5899408  80.9420000
  67.2649408 113.0889408  63.3920000  67.5729408 113.8519408  62.9040000
  67.6459408 113.1919408  64.2640000  70.3759408 113.4779408  77.1180000
  69.6279408 113.2069408  77.6500000  70.5139408 112.7509408  76.5100000
  75.4449408 115.1009408  74.0140000  76.2459408 115.2109408  73.5020000
  75.0809408 114.2679408  73.7140000  69.1669408  95.4379408  65.7480000
  68.8509408  95.6709408  64.8750000  69.4189408  94.5179408  65.6750000
  64.2729408 110.1469408  72.5690000  63.8439408 110.9559408  72.8460000
  65.0339408 110.0699408  73.1450000  64.1789408 107.7809408  68.9290000
  64.2309408 108.1619408  68.0530000  63.5919408 107.0319408  68.8310000
  71.1639408 119.3629408  74.0990000  71.9599408 119.0219408  74.5070000
  70.8289408 120.0059408  74.7250000  71.2709408 119.4239408  60.7540000
  71.1439408 119.1009408  59.8620000  70.7259408 120.2099408  60.8040000
  70.1639408 104.3359408  77.9330000  69.7059408 103.4989408  77.8530000
  70.9369408 104.2409408  77.3770000  66.7049408 114.8669408  67.0240000
  67.3139408 114.3839408  66.4660000  66.0519408 115.2189408  66.4190000
  60.7809408 107.7779408  63.0700000  61.3749408 107.8329408  63.8190000
  61.3059408 108.0689408  62.3250000  66.9129408 116.0559408  73.0170000
  66.7609408 116.9919408  73.1450000  67.8609408 115.9539408  73.1010000
  69.9689408 115.5049408  71.5150000  70.0609408 116.2039408  72.1630000
  69.5309408 115.9229408  70.7730000  72.8559408  92.0519408  69.6080000
  73.6339408  91.5559408  69.8640000  72.6389408  92.5739408  70.3800000
  70.9059408 112.2719408  61.9450000  70.8709408 111.3879408  61.5790000
  70.4339408 112.8129408  61.3120000  75.8529408 113.8829408  67.9390000
  75.9139408 113.7729408  66.9900000  76.7569408 114.0099408  68.2250000
  67.6779408 105.6369408  78.2270000  67.3809408 105.6059408  79.1360000
  68.4549408 105.0779408  78.2080000  64.3649408 112.5619408  70.9050000
  63.8259408 113.0119408  71.5560000  65.0559408 113.1889408  70.6910000
  71.6299408 113.2589408  71.2250000  71.9139408 113.2529408  70.3110000
  70.9499408 113.9319408  71.2610000  63.3079408 112.3489408  74.1740000
  63.6449408 113.1049408  73.6930000  63.8179408 112.3319408  74.9840000
  88.1769408  92.4219408  80.1510000  87.3749408  92.2089408  80.6290000
  88.4289408  93.2859408  80.4760000  79.2209408 118.9019408  69.3070000
  78.6819408 119.2899408  69.9960000  78.5979408 118.6619408  68.6210000
  60.7819408 106.6869408  75.9170000  60.1779408 106.2529408  76.5200000
  60.3069408 107.4619408  75.6180000  66.7389408 114.1779408  69.9850000
  66.8389408 115.0859408  70.2700000  66.8689408 114.2079408  69.0370000
  70.4329408  91.4439408  75.7220000  70.5989408  91.4719408  76.6650000
  70.7079408  92.3039408  75.4050000  63.3309408 109.3729408  78.2010000
  62.4419408 109.5659408  78.5000000  63.8949408 109.6769408  78.9110000
  86.3379408  98.5209408  74.7070000  85.9319408  99.3879408  74.7270000
  85.5999408  97.9109408  74.7000000  63.1059408 111.9459408  68.1800000
  63.4189408 112.7029408  68.6760000  62.1519408 112.0229408  68.2010000
  75.4369408 113.2539408  80.0090000  76.0059408 113.1119408  79.2530000
  75.0009408 112.4129408  80.1430000  67.0619408 111.4499408  69.2770000
  67.2629408 112.2119408  69.8210000  66.5489408 110.8769408  69.8470000
  72.0659408 118.8869408  69.7040000  71.2279408 118.5389408  69.3980000
  72.5209408 119.1529408  68.9050000  71.2699408 116.0949408  76.5260000
  71.8939408 116.0249408  75.8040000  71.2699408 115.2259408  76.9290000
  70.8659408 108.4719408  62.7640000  70.6719408 109.4039408  62.8690000
  71.5619408 108.2989408  63.3990000  69.4209408 111.4549408  67.9740000
  68.8169408 111.4819408  68.7160000  70.2109408 111.8929408  68.2920000
  88.8549408 113.9129408  70.4620000  88.1329408 113.2899408  70.3720000
  88.5459408 114.5469408  71.1090000  69.8059408 105.8759408  81.7940000
  68.8959408 106.1509408  81.9020000  69.7489408 104.9669408  81.5000000
  67.9939408 111.3219408  74.6600000  68.8919408 111.3319408  74.9910000
  67.9779408 112.0019408  73.9870000  85.4639408 115.1709408  68.5830000
  84.5769408 115.4189408  68.3240000  85.9009408 114.9499408  67.7600000
  84.4759408 110.8279408  79.0240000  85.3199408 111.0919408  78.6570000
  84.7019408 110.2359408  79.7420000  72.9509408  91.3049408  72.5350000
  73.5739408  90.6049408  72.7320000  72.1069408  90.9639408  72.8300000
  89.8429408 116.8959408  68.9490000  89.2369408 116.1979408  68.6960000
  90.4319408 116.4839408  69.5810000  73.2739408 116.0209408  65.5640000
  73.0779408 115.8549408  66.4860000  72.5129408 115.6839408  65.0920000
  73.9679408 113.1959408  72.7510000  73.0609408 113.1179408  72.4530000
  74.4749408 113.3119408  71.9480000  67.9659408 113.2009408  84.6000000
  68.6309408 112.7009408  84.1270000  67.9549408 114.0549408  84.1660000
  88.8189408 118.9629408  79.5480000  89.3499408 118.7979408  80.3270000
  87.9169408 118.8389408  79.8420000  67.1999408  92.1849408  79.7970000
  67.7519408  91.4189408  79.6400000  66.4489408  91.8439408  80.2840000
  71.4439408 105.8639408  83.9440000  72.0879408 106.3889408  83.4680000
  70.7859408 105.6379408  83.2870000  74.5009408 102.8519408  65.8720000
  74.3729408 102.6739408  66.8040000  73.6179408 102.8409408  65.5020000
  70.8959408 109.7499408  69.9370000  70.1039408 109.8069408  70.4710000
  71.6099408 109.9329408  70.5480000  79.0259408 104.6979408  65.6060000
  79.1789408 105.5409408  66.0320000  78.8219408 104.0999408  66.3250000
  66.7689408 118.4729408  74.2330000  67.3599408 119.2059408  74.4070000
  65.9639408 118.6979408  74.6990000  87.3529408  90.3099408  72.8330000
  87.5099408  89.6729408  73.5300000  87.9369408  91.0399408  73.0390000
  72.1129408 108.3489408  67.7370000  71.7449408 108.5769408  68.5910000
  71.5649408 108.8179408  67.1070000  84.6629408 109.5749408  72.4850000
  84.9049408 108.8659408  73.0800000  84.1909408 109.1409408  71.7740000
  61.4539408 119.7109408  75.8930000  61.4329408 120.6619408  76.0040000
  62.2849408 119.5399408  75.4500000  66.8329408 110.5419408  77.8900000
  67.4509408 109.8449408  77.6710000  66.2749408 110.1639408  78.5700000
  71.2019408 118.7629408  63.4690000  71.2119408 119.5939408  63.9450000
  71.6049408 118.9659408  62.6240000  66.1329408 113.5059408  80.1000000
  66.3269408 113.2889408  79.1880000  66.9599408 113.8419408  80.4480000
  70.2109408 118.4339408  71.9620000  71.0079408 118.2959408  71.4500000
  70.5229408 118.6039408  72.8510000  61.6809408 118.4499408  67.5820000
  62.3499408 117.9409408  67.1260000  60.8959408 117.9039408  67.5440000
  85.9239408 112.7609408  73.2040000  85.7279408 112.7439408  72.2670000
  86.0819408 111.8459408  73.4340000  79.3099408 116.6769408  74.0320000
  79.6109408 116.8749408  74.9190000  79.3619408 115.7229408  73.9680000
  63.3539408 114.7089408  69.0660000  63.7559408 115.5449408  69.3010000
  62.5179408 114.9489408  68.6650000  61.4129408 116.7549408  60.3960000
  62.1889408 117.0679408  59.9310000  61.2349408 115.8959408  60.0140000
  89.6089408 117.8679408  75.3230000  90.1049408 117.1339408  74.9590000
  90.2649408 118.5469408  75.4810000  82.3659408 104.6299408  68.6880000
  81.7399408 104.6659408  69.4110000  83.1379408 105.0919408  69.0160000
  61.5119408 109.0599408  73.6060000  60.8219408 109.4449408  73.0660000
  62.0049408 108.5029408  73.0030000  63.9449408 116.8669408  78.1460000
  63.7629408 116.8199408  77.2080000  64.4529408 117.6719408  78.2510000
  73.2799408 112.0519408  75.6120000  72.3279408 111.9589408  75.6370000
  73.5199408 111.8259408  74.7140000  72.9559408 111.3659408  66.3640000
  73.4859408 111.8059408  65.6990000  72.4029408 110.7609408  65.8690000
  78.2589408 102.5979408  67.4360000  77.7069408 101.9699408  66.9700000
  77.6589408 103.0499408  68.0290000  86.3759408 113.1479408  82.1470000
  85.9069408 113.8409408  81.6830000  87.2419408 113.1299408  81.7400000
  72.6159408 112.0489408  84.5270000  72.7129408 111.7699408  85.4380000
  73.1399408 111.4229408  84.0270000  64.7479408 116.4299408  62.0810000
  64.8309408 115.7089408  62.7050000  63.9279408 116.8609408  62.3190000
  69.2759408 116.4629408  74.7030000  69.7309408 116.2569408  75.5190000
  69.1089408 117.4049408  74.7520000  83.3719408 119.3539408  76.9710000
  83.3079408 118.3989408  76.9860000  82.9949408 119.6059408  76.1290000
  76.2559408 113.4489408  82.4580000  75.9049408 113.5529408  81.5740000
  75.4959408 113.5559408  83.0320000  66.9949408 105.9949408  80.7340000
  66.4209408 105.7369408  81.4560000  66.9939408 106.9519408  80.7580000
  76.4109408 117.9309408  76.0400000  76.7929408 118.4529408  76.7440000
  76.9819408 118.0879408  75.2870000  74.1419408 114.1589408  84.0840000
  73.6309408 113.3779408  84.2940000  73.5819408 114.6599408  83.4910000
  73.5379408 106.9969408  82.3460000  74.1009408 106.3869408  82.8230000
  73.4289408 106.5979408  81.4830000  73.4829408 109.4799408  83.5240000
  73.6019408 108.6709408  83.0260000  74.1959408 109.4769408  84.1620000
  65.5179408 110.8639408  60.6340000  64.6129408 110.9029408  60.3240000
  65.8689408 111.7369408  60.4600000  74.6979408 115.7839408  79.6430000
  74.8279408 115.7939408  78.6940000  74.6369408 114.8559408  79.8670000
  65.6269408 115.5319408  82.0670000  66.1349408 115.9269408  81.3580000
  65.2669408 114.7309408  81.6870000  84.5209408 107.0009408  82.3890000
  85.1209408 106.3069408  82.6620000  83.6929408 106.7869408  82.8180000
  70.6369408 111.0749408  75.7480000  71.0509408 110.3259408  76.1760000
  70.8889408 110.9959408  74.8280000  74.6019408 118.8039408  83.5100000
  75.1489408 118.3629408  84.1610000  74.6489408 119.7299408  83.7450000
  77.2359408 115.8399408  84.2300000  77.9919408 115.7569408  83.6490000
  76.6439408 115.1399408  83.9550000  76.3829408 115.0279408  76.5230000
  75.9809408 114.9789408  75.6560000  76.6939408 115.9299408  76.5930000
  59.8979408 115.6919408  82.9550000  59.7849408 114.8959408  83.4740000
  60.8379408 115.7319408  82.7780000  68.7329408 115.2859408  62.7840000
  69.4529408 115.3559408  62.1580000  68.2929408 116.1349408  62.7390000
  86.7709408  93.6649408  82.7270000  86.7729408  92.8369408  83.2070000
  87.3549408  94.2339408  83.2270000  69.9189408  93.5539408  81.8240000
  69.1149408  93.4609408  82.3350000  70.5089408  92.8899408  82.1800000
  68.4839408 102.6569408  72.7750000  68.7579408 103.2109408  72.0450000
  69.2489408 102.1129408  72.9640000  64.8689408 112.0059408  64.4930000
  65.4839408 112.3369408  63.8380000  65.3879408 111.9349408  65.2950000
  61.1839408 113.8679408  62.2820000  61.7039408 113.3719408  61.6500000
  61.6219408 113.7219408  63.1200000  61.2759408 110.9209408  82.3260000
  61.5259408 110.2529408  81.6880000  61.9619408 111.5849408  82.2600000
  67.4129408 116.2019408  80.0570000  67.4249408 116.6489408  79.2110000
  68.2419408 116.4469408  80.4690000  81.6459408 115.8579408  79.2480000
  81.8839408 115.4889408  78.3980000  81.1379408 115.1669408  79.6750000
  72.1069408 118.3369408  82.1520000  72.8629408 118.3479408  82.7390000
  71.9139408 119.2609408  81.9920000  66.9049408 119.6589408  84.4020000
  67.4049408 119.1249408  85.0190000  67.5369408 119.8999408  83.7250000
  75.8789408  92.1039408  81.6990000  75.5149408  91.9559408  82.5720000
  76.7829408  91.7959408  81.7610000  68.8949408 111.6709408  79.8570000
  68.2309408 111.5909408  79.1720000  68.9859408 110.7849408  80.2080000
  79.3409408 109.3989408  80.3370000  79.0289408 109.1119408  79.4790000
  78.5439408 109.5879408  80.8320000  73.0649408  91.5539408  80.0000000
  73.9649408  91.6039408  80.3230000  72.9399408  90.6309408  79.7800000
  70.1359408 112.0139408  83.1660000  70.2959408 112.4989408  82.3560000
  70.9959408 111.9489408  83.5810000  74.4529408 110.9099408  63.7780000
  74.3679408 110.7669408  62.8350000  75.0229408 110.2019408  64.0770000
  67.1399408 117.5469408  77.6840000  66.8289408 117.2759408  76.8200000
  66.5409408 118.2459408  77.9460000  68.0329408 119.1679408  70.5370000
  68.6119408 118.8459408  71.2270000  67.5109408 119.8489408  70.9610000
  72.8329408 106.8609408  73.8650000  72.4649408 105.9809408  73.9370000
  72.1939408 107.3459408  73.3420000  65.5019408  90.1759408  80.8970000
  65.1519408  90.8029408  81.5300000  65.3639408  89.3209408  81.3060000
  72.2429408  96.3459408  67.8770000  73.0639408  95.9189408  67.6340000
  71.5769408  95.9019408  67.3520000  79.3769408  97.5459408  72.7920000
  79.5639408  97.9789408  71.9590000  78.9799408  98.2279408  73.3340000
  89.9389408 102.9329408  80.1570000  89.2409408 103.5489408  79.9330000
  89.5489408 102.0699408  80.0180000  83.4369408  98.0999408  74.6000000
  83.0629408  98.4679408  73.7990000  83.0709408  97.2169408  74.6520000
  87.4789408  93.9939408  70.6530000  87.3369408  94.2939408  69.7560000
  87.7139408  93.0699408  70.5640000  83.8419408  97.9109408  71.1330000
  83.2649408  98.4849408  70.6300000  84.5029408  97.6239408  70.5030000
  60.0609408  96.7279408  77.5830000  60.7789408  97.3319408  77.7720000
  59.7179408  97.0209408  76.7390000  88.2209408 113.3229408  74.8680000
  87.5639408 113.4529408  74.1850000  89.0359408 113.1649408  74.3900000
  85.9399408  95.4359408  74.7680000  86.1589408  95.8389408  73.9280000
  85.7629408  94.5199408  74.5560000  60.4629408 112.8909408  73.2580000
  60.2129408 111.9829408  73.0880000  61.3599408 112.8359408  73.5870000
  74.7979408 101.2589408  80.4950000  74.1209408 101.7319408  80.0110000
  75.3779408 101.9449408  80.8280000  78.4659408 113.8039408  69.1880000
  78.8379408 114.6159408  68.8460000  78.9149408 113.1109408  68.7040000
  65.6159408  93.9159408  77.9620000  66.1299408  93.4149408  78.5940000
  65.1099408  93.2559408  77.4870000  85.2969408  95.6169408  79.7390000
  86.1719408  95.2819408  79.5430000  84.9219408  95.8239408  78.8830000
  70.5079408  97.1349408  80.9140000  71.3479408  96.7929408  80.6060000
  70.6289408  97.2549408  81.8560000  65.4309408  98.9249408  73.3460000
  64.5449408  98.8439408  73.6980000  65.4069408  99.7229408  72.8170000
  79.1209408 101.3209408  73.8360000  78.7309408 101.3989408  72.9650000
  78.7629408 102.0599408  74.3270000  83.4509408 106.6139408  77.9200000
  83.0099408 107.2459408  77.3520000  82.8429408 106.4799408  78.6470000
  61.2429408 115.3819408  71.0890000  61.8839408 114.7989408  70.6820000
  60.4409408 114.8619408  71.1370000  85.5609408 101.1319408  75.4750000
  85.1189408 100.5969408  76.1340000  84.8589408 101.6419408  75.0700000
  61.6959408 104.5629408  65.6540000  61.0739408 104.5129408  64.9270000
  61.7619408 103.6639408  65.9750000  86.7429408  93.6139408  77.8620000
  86.4659408  94.0829408  77.0750000  86.0469408  92.9769408  78.0200000
  87.0209408  90.6149408  83.3560000  86.1119408  90.3729408  83.1770000
  87.4589408  89.7839408  83.5400000  87.0549408 110.3509408  73.5330000
  86.2059408 110.0659408  73.1960000  87.4329408 109.5649408  73.9270000
  84.9759408  91.0289408  80.1130000  84.6729408  91.3969408  79.2830000
  84.4759408  91.4979408  80.7810000  82.5319408 113.9129408  76.2690000
  83.3199408 113.8259408  76.8050000  82.8589408 114.0669408  75.3830000
  86.3219408  97.4929408  83.9420000  86.3019408  96.7529408  84.5480000
  87.1049408  97.9849408  84.1900000  60.1739408 101.8329408  71.6060000
  60.4409408 101.6049408  72.4960000  60.8999408 102.3529408  71.2630000
  85.7369408 109.1459408  68.1800000  84.8499408 109.1279408  68.5390000
  86.1869408 108.4239408  68.6170000  78.3429408 115.7469408  66.0430000
  78.8659408 114.9999408  65.7510000  77.5969408 115.7659408  65.4440000
  64.7929408 115.8129408  65.2480000  64.3529408 116.6369408  65.4600000
  64.0799408 115.1949408  65.0880000  83.2419408 113.1659408  70.4920000
  82.9709408 113.7249408  69.7630000  82.5509408 112.5069408  70.5570000
  85.7379408 116.5139408  76.0000000  85.5399408 115.6189408  75.7260000
  84.8859408 116.8929408  76.2160000  65.4109408  91.6389408  74.1010000
  66.3529408  91.5459408  73.9540000  65.1199408  92.2449408  73.4200000
  84.4599408  92.0869408  77.5660000  84.6979408  92.1839408  76.6440000
  83.9199408  91.2969408  77.5930000  68.5499408  94.3989408  79.4280000
  69.1569408  94.0959408  80.1040000  67.8149408  93.7869408  79.4750000
  82.1169408  96.2239408  76.4610000  81.5759408  96.8179408  76.9810000
  81.6809408  96.1839408  75.6100000  87.9949408  91.5439408  69.2960000
  87.6689408  90.7739408  69.7610000  87.5859408  91.4939408  68.4320000
  64.1849408 109.2609408  75.5620000  63.2749408 109.4589408  75.3410000
  64.2369408 109.3929408  76.5080000  81.5719408 106.0879408  79.4610000
  81.2589408 106.5549408  80.2350000  82.0279408 105.3219408  79.8100000
  84.5889408 102.8039408  78.0590000  85.3309408 102.2919408  77.7360000
  84.9889408 103.5189408  78.5550000  62.6959408  94.0899408  81.8710000
  62.3059408  93.5869408  81.1560000  62.9999408  94.8979408  81.4560000
  89.8669408 112.4849408  83.7190000  90.5199408 112.0109408  83.2050000
  89.1229408 112.5889408  83.1250000  82.9719408 119.7709408  66.6800000
  82.3179408 120.1079408  67.2920000  83.6439408 119.3789408  67.2390000
  90.0319408  99.3559408  67.3470000  89.0959408  99.2539408  67.5190000
  90.1719408  98.9109408  66.5120000  72.1399408  97.4559408  72.2220000
  73.0799408  97.4309408  72.0430000  71.9669408  96.6499408  72.7080000
  82.2569408 102.3619408  71.4830000  81.7519408 103.1539408  71.2990000
  82.2079408 101.8529408  70.6740000  87.9939408  98.9349408  78.7130000
  88.8849408  98.7869408  79.0320000  87.4419408  98.4079408  79.2910000
  61.9669408  98.2519408  78.4270000  62.8179408  98.6559408  78.5950000
  61.4089408  98.5619408  79.1400000  87.5039408  95.9579408  72.6760000
  87.6349408  95.1329408  72.2080000  87.4329408  96.6169408  71.9850000
  76.8479408 119.6619408  70.6200000  76.3209408 119.0759408  71.1630000
  76.2789408 119.8849408  69.8840000  65.8869408 100.2809408  65.3640000
  65.6359408 100.8369408  66.1020000  65.8729408 100.8659408  64.6070000
  82.0509408 117.8479408  81.3780000  82.2919408 117.3129408  80.6220000
  82.4079408 118.7149408  81.1820000  86.0049408 118.4509408  80.5770000
  85.3879408 117.8689408  80.1320000  85.6789408 119.3319408  80.3920000
  84.3869408 100.8979408  67.2380000  84.6949408 101.3449408  68.0260000
  85.0989408 101.0059408  66.6070000  80.4669408 117.5979408  76.5020000
  80.0149408 118.4079408  76.7400000  79.9129408 116.9009408  76.8520000
  77.1799408 114.4859408  71.5940000  77.1339408 114.0919408  70.7230000
  77.8769408 115.1389408  71.5260000  87.1109408  97.9229408  70.7590000
  86.6699408  98.6599408  71.1820000  87.2859408  98.2279408  69.8680000
  87.6649408 107.8339408  80.4340000  87.0099408 107.9209408  81.1270000
  87.7929408 108.7259408  80.1110000  64.0989408 107.2339408  80.9040000
  63.5579408 107.6299408  80.2210000  64.7849408 107.8809408  81.0720000
  83.0409408 115.6989408  67.7480000  82.2169408 116.1149408  67.4950000
  83.0589408 114.8799408  67.2530000  75.0709408  93.1099408  71.9730000
  75.9309408  92.7019408  71.8700000  74.5769408  92.4959408  72.5170000
  61.2549408  96.8109408  74.1630000  60.3669408  96.7379408  74.5100000
  61.5479408  97.6809408  74.4330000  61.2039408 108.3319408  68.1590000
  61.7869408 108.4599408  68.9080000  60.4139408 107.9419408  68.5330000
  70.8509408 108.0429408  80.5640000  71.5169408 107.8769408  79.8970000
  70.6929408 107.1879408  80.9640000  85.3289408 103.5029408  71.5810000
  85.0329408 104.2309408  72.1270000  86.1189408 103.1829408  72.0170000
  87.1119408 117.8559408  74.3000000  86.6299408 117.3489408  74.9530000
  88.0099408 117.8809408  74.6300000  79.4179408 105.1679408  76.0930000
  80.2329408 104.6729408  76.0060000  79.6999408 106.0539408  76.3210000
  65.1689408 104.5189408  76.3780000  65.8409408 104.4369408  77.0540000
  64.4199408 104.9079408  76.8290000  81.4209408  95.9589408  73.7260000
  80.7449408  96.4539408  73.2630000  82.0389408  95.6999408  73.0420000
  77.9489408 107.1749408  71.2960000  77.9059408 106.2389408  71.0990000
  78.8179408 107.2979408  71.6800000  85.4809408 101.9639408  69.4060000
  85.1199408 102.5119408  70.1030000  86.2799408 101.5939408  69.7810000
  76.7859408 108.4209408  61.6810000  76.7219408 107.5299408  61.3370000
  77.4129408 108.8559408  61.1040000  82.8489408 103.5719408  79.9600000
  83.5609408 103.2709408  79.3950000  82.1069408 103.0129408  79.7290000
  83.2589408  90.4689408  74.2250000  83.7039408  89.7619408  73.7580000
  83.9489408  91.1049408  74.4120000  68.5139408 108.9249408  64.6940000
  68.4449408 107.9949408  64.9100000  67.8739408 109.0569408  63.9950000
  76.2619408  95.6629408  71.8050000  77.1559408  95.3529408  71.9450000
  75.7269408  94.8699408  71.8260000  85.2609408  92.5219408  75.1500000
  86.1599408  92.1979408  75.2140000  85.1129408  92.6349408  74.2110000
  86.0369408  99.7699408  72.4210000  86.3529408  99.1019408  73.0300000
  85.0999408  99.8379408  72.6050000  89.4079408 110.4649408  72.4830000
  88.5159408 110.4729408  72.8300000  89.2959408 110.4509408  71.5330000
  82.3429408 107.8229408  73.7280000  82.4789408 108.5569408  74.3260000
  81.4959408 107.9999408  73.3180000  78.5539408 108.9259408  84.6820000
  78.7939408 108.2999408  85.3660000  79.3529408 109.4279408  84.5250000
  60.9789408 101.7839408  66.4660000  60.8059408 101.5689408  65.5490000
  60.8379408 100.9619408  66.9360000  77.5829408  92.1169408  71.6990000
  77.5359408  91.9249408  72.6360000  77.4419408  91.2719408  71.2740000
  89.4029408 111.3029408  76.8030000  89.1189408 112.1149408  76.3830000
  90.2919408 111.4879408  77.1050000  89.9999408  93.3119408  68.7350000
  89.2879408  92.6869408  68.8720000  89.6239408  94.1599408  68.9690000
  67.9229408  90.9289408  67.0610000  68.3859408  91.4039408  67.7510000
  67.6119408  91.6119408  66.4670000  88.3659408  95.4669408  79.3010000
  88.8039408  95.9929408  78.6320000  88.0599408  94.6899408  78.8330000
  80.9419408  94.3839408  77.7550000  80.5819408  93.9059408  77.0080000
  81.5239408  95.0359408  77.3640000  81.4199408 103.2069408  84.2540000
  81.6209408 102.3409408  84.6100000  81.2789408 103.0559408  83.3200000
  89.1759408 100.3779408  82.4850000  88.2839408 100.5879408  82.2080000
  89.0939408 100.1619408  83.4140000  87.5159408 101.6489408  78.8270000
  87.5849408 100.6959408  78.7670000  87.6049408 101.8379408  79.7610000
  88.1189408 103.0759408  83.9840000  88.7619408 102.6759408  84.5710000
  87.4529408 103.4369408  84.5690000  62.9169408 100.2559408  82.9200000
  62.3259408 100.8239408  82.4250000  63.4999408 100.8599408  83.3800000
  81.1939408  94.9999408  84.4080000  80.3499408  95.2639408  84.7730000
  81.2559408  94.0639408  84.5980000  62.6489408  97.0719408  83.3300000
  62.9159408  97.8839408  82.8980000  62.1039408  96.6239408  82.6820000
  87.0089408  97.7539408  80.9100000  87.1639408  97.5669408  81.8360000
  86.1749408  97.3249408  80.7160000  79.5569408 109.2589408  64.7920000
  79.8279408 108.5009408  64.2750000  79.5719408 109.9889408  64.1730000
  82.1869408  97.3489408  83.2340000  82.6329408  97.2299408  82.3960000
  81.9849408  96.4599408  83.5270000  83.0549408 116.8219408  75.9560000
  82.1179408 116.8199408  76.1500000  83.1779408 116.0819408  75.3610000
  86.0829408 104.9759408  82.9120000  86.8299408 104.5689408  82.4730000
  86.1679408 104.7089408  83.8270000  84.2559408 113.5429408  78.3680000
  84.2759408 112.7569408  78.9150000  85.1489408 113.6239408  78.0320000
  85.2449408 105.1359408  79.2390000  84.6809408 105.3399408  79.9860000
  85.0279408 105.8009408  78.5860000  77.5889408  95.9449408  81.8650000
  77.9269408  95.0509408  81.9150000  78.2399408  96.4199408  81.3480000
  80.0679408  96.6019408  80.6770000  80.4109408  95.7399408  80.4420000
  80.8469408  97.1369408  80.8290000  89.4139408  93.1659408  76.0720000
  89.2369408  92.3849408  76.5970000  88.9069408  93.8589408  76.4960000
  77.8799408  97.6249408  84.1220000  77.7579408  96.6759408  84.0920000
  77.0159408  97.9709408  84.3480000  88.6979408  94.9809408  83.9730000
  89.2289408  95.6649408  84.3820000  89.2709408  94.2149408  83.9480000
  69.8899408 101.8059408  77.1790000  70.2009408 101.2239408  77.8720000
  70.1229408 101.3559408  76.3660000  62.2539408 105.9619408  84.7120000
  61.4929408 105.4689408  84.4070000  63.0069408 105.4519408  84.4130000
  80.0029408  99.2039408  83.4090000  80.8009408  98.6759408  83.4560000
  79.3039408  98.6049408  83.6730000  83.6059408 102.7209408  74.1930000
  83.3069408 102.6279408  73.2890000  83.8659408 103.6389408  74.2670000
  83.0969408  97.0939408  80.7320000  83.5719408  97.7899408  80.2780000
  83.5829408  96.2959408  80.5220000  65.2779408 101.5559408  67.5480000
  64.8449408 100.9229408  68.1220000  65.5749408 102.2489408  68.1370000
  66.0519408  96.0389408  72.9900000  66.7619408  95.9259408  72.3580000
  65.9799408  96.9859408  73.1040000  86.9689408 116.1229408  82.1750000
  87.8909408 116.2139408  82.4190000  86.8059408 116.8519408  81.5770000
  60.5089408  99.7659408  73.8980000  59.8269408  99.7809408  74.5700000
  60.2249408  99.0889408  73.2830000  82.0069408 103.9469408  76.1180000
  82.6479408 103.3789408  75.6900000  82.4899408 104.3509408  76.8390000
  63.1369408 105.9089408  77.4420000  63.2879408 106.7359408  77.8990000
  62.3239408 106.0479408  76.9560000  84.1139408  93.7159408  81.1230000
  84.5879408  94.4759408  80.7840000  84.5419408  93.5189408  81.9560000
  73.7419408  96.4529408  75.6390000  74.2449408  96.8479408  74.9270000
  73.4279408  97.1979408  76.1520000  63.9139408 104.3159408  80.0960000
  63.3239408 105.0459408  80.2810000  63.8699408 104.2069408  79.1460000
  79.3529408  99.0949408  79.9650000  78.9699408  99.8979408  80.3180000
  79.1119408  98.4159408  80.5960000  77.2159408  92.2419408  74.2630000
  77.4569408  91.6839408  75.0030000  76.9959408  93.0849408  74.6600000
  66.1759408  93.6459408  83.8610000  67.0319408  93.4339408  84.2340000
  65.6269408  93.8449408  84.6190000  60.6509408 104.1239408  83.5250000
  59.7119408 103.9479408  83.5810000  60.9809408 103.4709408  82.9080000
  62.0539408 102.5049408  81.6720000  62.7779408 103.0489408  81.3630000
  61.3189408 102.7389408  81.1060000  63.5789408  95.2939408  74.7230000
  64.2869408  95.7469408  74.2640000  62.8469408  95.9109408  74.7040000
  74.3679408  98.5949408  80.4910000  74.4269408  99.5469408  80.5680000
  74.3979408  98.4279408  79.5490000  62.4339408 119.4479408  81.3220000
  61.7669408 118.7629408  81.3040000  62.1439408 120.0829408  80.6670000
  79.6399408 107.0629408  81.6660000  80.2749408 107.2579408  82.3550000
  79.4069408 107.9179408  81.3040000  87.1349408 102.3819408  81.4320000
  86.3539408 101.8949408  81.6950000  87.7049408 102.3559408  82.2000000
  61.7099408  94.5589408  77.3620000  61.2679408  94.1129408  76.6390000
  61.0809408  95.2169408  77.6580000  82.3099408 100.3559408  81.7640000
  81.7209408 101.1059408  81.6740000  81.7629408  99.6659408  82.1410000
  88.6129408 110.5529408  80.3810000  89.2029408 110.8629408  81.0670000
  88.5069408 111.3039408  79.7970000  84.3199408 105.3179408  73.4330000
  83.7379408 106.0469408  73.2200000  84.8819408 105.6559408  74.1310000
  82.5469408 105.5769408  64.2880000  81.8889408 106.0879408  63.8160000
  82.4899408 104.7009408  63.9070000  79.5539408  90.0589408  77.2370000
  79.8519408  90.3489408  76.3750000  78.6799408  90.4369408  77.3290000
  84.5779408 116.1839408  79.7680000  85.3119408 115.7339408  79.3490000
  83.8019408 115.8429408  79.3220000  79.7779408 113.9979408  73.5600000
  80.2779408 114.1409408  72.7560000  80.3799408 113.5269408  74.1360000
  81.6989408  90.0119408  79.4060000  82.3109408  89.7979408  78.7010000
  80.9559408  90.4209408  78.9620000  82.0079408 100.1399408  76.2200000
  81.9829408 100.3189408  75.2790000  82.8879408  99.7949408  76.3750000
  76.6089408 108.0909408  73.3550000  76.7289408 107.5009408  72.6110000
  77.4469408 108.5439408  73.4390000  61.0329408 115.6039408  73.9710000
  60.2089408 115.2399408  74.2930000  61.2309408 115.0919408  73.1870000
  61.9339408 119.6879408  78.6420000  62.2469408 118.7839408  78.6550000
  61.5109408 119.7829408  77.7880000  61.1559408 108.4609408  80.0400000
  60.2709408 108.7809408  79.8660000  61.0349408 107.5459408  80.2950000
  62.0799408 118.3339408  63.5080000  61.6479408 118.7749408  62.7770000
  62.4669408 119.0439408  64.0210000  77.4589408 109.6149408  66.9330000
  76.5709408 109.2699408  67.0270000  77.7209408 109.3639408  66.0470000
  86.6749408 107.5639408  73.5590000  86.2789408 107.7839408  74.4030000
  86.8119408 106.6169408  73.5990000  79.9319408 113.5469408  65.4520000
  79.4589408 112.7149408  65.4690000  80.8459408 113.3059408  65.6030000
  83.0439408 111.6259408  73.4910000  82.5689408 111.6099408  72.6600000
  83.9519408 111.4399408  73.2520000  82.5659408 113.1829408  66.2490000
  82.5139408 112.3989408  66.7960000  83.4839408 113.2299408  65.9820000
  62.7359408 113.2419408  81.7040000  62.8889408 113.6109408  80.8350000
  62.5469408 113.9999408  82.2570000  85.2289408  93.2469408  72.4100000
  84.8559408  92.6399408  71.7710000  86.0849408  93.4789408  72.0500000
  63.0529408 116.7679408  75.5720000  62.4119408 116.2939408  75.0430000
  63.1159408 117.6289408  75.1590000  85.6729408 110.8899408  83.2500000
  85.9379408 111.6929408  82.8020000  85.0279408 110.4909408  82.6670000
  88.0719408 105.0429408  74.1250000  88.3279408 104.1539408  73.8810000
  88.7059408 105.6059408  73.6790000  81.4969408 107.6769408  68.9910000
  80.6869408 107.9649408  69.4120000  81.2069408 107.1699408  68.2330000
  81.3089408 111.2979408  70.9070000  80.3719408 111.3809408  71.0840000
  81.3559408 110.9219408  70.0280000  82.7679408 109.3119408  77.3790000
  82.3009408 110.0629408  77.0110000  83.4259408 109.6989408  77.9570000
  79.7129408 111.5399408  67.5910000  79.1179408 110.8719408  67.2500000
  80.5109408 111.0599408  67.8100000  87.1539408 115.2229408  78.8610000
  87.2309408 114.5909408  78.1470000  87.9429408 115.7599408  78.7930000
  88.9979408 105.2499408  77.3840000  88.6679408 105.0439408  78.2580000
  88.5579408 104.6249408  76.8080000  77.0249408 112.7099408  77.6690000
  76.8809408 112.0149408  77.0260000  76.7759408 113.5139408  77.2140000
  78.1619408 101.4479408  78.1310000  78.1129408 101.6889408  79.0560000
  79.0279408 101.7449408  77.8520000  71.7949408  94.1809408  75.4660000
  71.0579408  94.3869408  76.0420000  72.4969408  94.7619408  75.7580000
  84.1549408 118.4689408  68.6710000  84.9869408 117.9959408  68.6860000
  83.5239408 117.8559408  69.0480000  87.6299408 118.3429408  67.5860000
  87.5669408 117.3909408  67.5050000  87.5549408 118.5079408  68.5260000
  86.7179408 113.2369408  77.1170000  87.0469408 113.5299408  76.2670000
  86.4409408 112.3329408  76.9690000  78.1019408 119.3339408  73.8490000
  78.8249408 119.9569408  73.9170000  78.5209408 118.5029408  73.6270000
  60.8829408 105.8929408  80.9960000  61.0199408 105.6469408  81.9110000
  60.0429408 105.4959408  80.7640000  89.7119408 117.0349408  78.1520000
  89.5509408 117.4989408  77.3300000  89.2639408 117.5589408  78.8150000
  67.1339408 113.6299408  77.5170000  66.9599408 114.4419408  77.0430000
  67.4829408 113.0339408  76.8540000  64.8129408 110.6049408  80.3340000
  64.8989408 111.5329408  80.5520000  64.8869408 110.1529408  81.1740000
  85.3029408 116.0099408  71.7730000  85.0519408 115.5969408  70.9470000
  84.6769408 116.7259408  71.8830000  75.4609408 113.4619408  63.0360000
  75.9439408 113.2799408  62.2300000  75.3659408 112.6069408  63.4560000
  73.5109408 117.9189408  75.3630000  74.4469408 117.8499408  75.5500000
  73.2639408 117.0499408  75.0470000  81.1539408 117.1659408  66.5480000
  81.4189408 116.9389408  65.6570000  81.5359408 118.0299408  66.7000000
  76.0469408  94.5639408  75.7710000  76.0809408  94.5099408  76.7260000
  75.4529408  95.2939408  75.5940000  62.8799408 117.4629408  72.2670000
  62.0239408 117.0379408  72.2150000  63.2679408 117.3299408  71.4030000
  60.1709408 115.8719408  63.6420000  60.6029408 115.3299408  62.9810000
  60.8439408 116.4929408  63.9200000  81.9069408 110.2649408  68.2860000
  81.7919408 109.3209408  68.3890000  82.4119408 110.3589408  67.4790000
  80.8209408 115.7819408  71.5460000  80.6039408 115.9449408  70.6280000
  80.7959408 116.6459408  71.9560000  78.4929408 110.8929408  71.3400000
  78.2899408 110.2629408  70.6490000  77.8709408 111.6069408  71.2050000
  87.5929408 118.9229408  70.4380000  87.4519408 119.3709408  71.2720000
  88.5019408 118.6269408  70.4740000  69.8979408 118.3239408  77.5680000
  70.5479408 117.6229408  77.5210000  69.0609408 117.8869408  77.4100000
  60.6229408 115.0849408  79.8260000  61.5509408 114.8679408  79.9130000
  60.5909408 115.7159408  79.1080000  84.9399408 118.5519408  72.8940000
  85.6679408 118.0659408  73.2810000  85.3499408 119.3119408  72.4820000
  86.2609408 110.5759408  76.5330000  85.9599408 109.7359408  76.1870000
  87.1519408 110.4039408  76.8380000  60.9209408 119.9589408  69.9480000
  61.4189408 119.3979408  69.3520000  60.0779408 120.0829408  69.5120000
  80.1059408 116.3139408  68.9570000  80.3829408 116.3689408  68.0430000
  79.8789408 117.2129408  69.1940000  84.8339408 108.1349408  75.5300000
  85.1179408 107.2749408  75.8380000  84.2629408 108.4619408  76.2250000
  85.9399408 113.0769408  70.1740000  85.0409408 112.8989408  70.4490000
  85.8779408 113.8789408  69.6550000  60.5509408 113.0329408  68.3860000
  60.1859408 113.4379408  67.6000000  59.8569408 113.1109408  69.0410000
  79.0939408 115.2559408  77.6310000  78.8449408 115.5209408  78.5160000
  78.5189408 114.5169408  77.4310000  84.6889408 116.4959408  83.9890000
  85.4609408 116.4079408  83.4300000  84.0209408 115.9579408  83.5630000
  79.7889408 117.3129408  83.2930000  80.5389408 117.1429408  82.7230000
  79.6029408 118.2449408  83.1720000  86.0789408 118.6559408  65.3270000
  86.5179408 118.9459408  66.1270000  86.5309408 117.8469408  65.0860000
  77.6129408 110.7449408  63.2240000  77.4149408 109.8939408  62.8320000
  77.7729408 111.3209408  62.4770000  88.7029408 113.2359408  80.3090000
  89.5569408 113.6369408  80.1500000  88.0819408 113.8059408  79.8540000
  79.1839408 112.3919408  79.3730000  78.8759408 112.0519408  80.2130000
  78.3959408 112.4469408  78.8330000  82.4529408 112.8319408  84.3870000
  83.2899408 113.2969408  84.4070000  81.9209408 113.3219408  83.7600000
  89.7389408  91.2499408  82.7270000  89.9719408  90.5979408  82.0660000
  88.7969408  91.1349408  82.8560000  86.4519408 108.2429408  83.9800000
  86.5979408 109.0739408  83.5290000  85.5169408 108.0689408  83.8690000
  62.8429408 115.7119408  83.1490000  63.7689408 115.4969408  83.0340000
  62.8479408 116.5679408  83.5780000  88.0669408 105.0089408  80.1910000
  88.0739408 105.9439408  79.9830000  87.1889408 104.8459408  80.5340000
  89.9059408 118.0329408  81.8660000  89.3759408 118.3819408  82.5830000
  90.0419408 117.1129408  82.0930000  80.8229408 110.4389408  84.5460000
  81.4419408 111.1659408  84.6110000  80.8099408 110.2179408  83.6140000
  84.2699408 119.2149408  84.6630000  84.2869408 118.9489408  85.5820000
  84.4699408 118.4149408  84.1780000  80.7379408  93.9019408  80.2470000
  80.8629408  93.9519408  79.3000000  81.6089408  94.0529408  80.6130000
  89.0199408 118.8129408  84.3330000  89.8619408 119.1639408  84.6250000
  88.8459408 118.0819408  84.9260000  77.0399408 118.4119408  84.8180000
  77.5809408 118.5059408  85.6020000  77.1749408 117.5059408  84.5410000
  83.6199408 114.9529408  82.0760000  82.8519408 114.5989408  81.6270000
  84.1499408 115.3379408  81.3780000  81.2529408 113.5169408  80.7880000
  80.5179408 113.0819408  80.3570000  80.8559408 113.9929408  81.5170000
  63.1729408 119.6979408  83.8650000  62.8949408 119.4999408  82.9710000
  63.6089408 120.5479408  83.7990000  84.4219408  99.4159408  80.1160000
  85.2529408  99.6309408  80.5400000  83.7539408  99.7569408  80.7110000
  78.5739408 116.5729408  79.9790000  79.3969408 117.0059408  80.2050000
  77.9349408 116.9379408  80.5900000  83.9579408  91.6669408  83.3620000
  83.0839408  91.9459408  83.6370000  84.0009408  90.7409408  83.6010000
  83.5929408 110.4459408  66.1030000  84.4549408 110.0469408  66.2220000
  83.6239408 110.8299408  65.2270000  81.0189408 111.9559408  77.3460000
  80.6409408 112.0609408  78.2200000  81.4569408 112.7889408  77.1720000
  89.3579408  96.4659408  81.7420000  88.9689408  96.1709408  80.9190000
  89.0259408  95.8529408  82.3980000  65.0389408 110.2599408  83.3180000
  65.4329408 110.8059408  83.9980000  64.2329408 109.9279408  83.7140000
  62.0639408  92.4419408  79.6400000  62.0359408  93.1009408  78.9460000
  61.3919408  91.8059408  79.3950000  76.0279408 119.2599408  78.5900000
  75.0909408 119.1729408  78.4130000  76.1359408 118.9249408  79.4800000
  80.3859408 114.2079408  83.2040000  80.0829408 115.1069408  83.3300000
  79.8389408 113.6859408  83.7910000  70.0009408 116.2329408  81.9690000
  70.8279408 115.7619408  82.0740000  70.2609408 117.1449408  81.8330000
  73.1139408 119.2469408  78.1040000  73.4209408 118.6579408  77.4150000
  72.3449408 119.6749408  77.7280000  64.1209408 133.6749408  13.7610000
  64.0209408 134.4239408  14.3480000  64.6659408 133.0579408  14.2490000
  79.4019408 137.0039408   3.4620000  79.3069408 136.1259408   3.8320000
  78.6369408 137.1089408   2.8970000  81.2879408 125.2629408  29.9310000
  80.5409408 124.9539408  30.4440000  80.9199408 125.9259408  29.3470000
  66.9639408 147.2739408   4.1330000  66.2589408 146.7169408   4.4630000
  66.9889408 148.0129408   4.7410000  66.7109408 138.7099408  21.4700000
  66.3839408 139.3649408  22.0880000  67.6529408 138.8729408  21.4250000
  71.8849408 131.9679408  12.0810000  71.2899408 131.2449408  12.2800000
  72.7569408 131.5759408  12.1090000  65.8789408 126.9689408   8.7010000
  65.4139408 126.1719408   8.4480000  65.9029408 127.4959408   7.9020000
  75.1049408 137.8279408  15.6050000  74.2939408 137.6459408  15.1300000
  75.7899408 137.7719408  14.9380000  60.6359408 134.0729408   8.5360000
  59.8129408 134.3929408   8.1640000  60.9089408 133.3719408   7.9450000
  78.8559408 138.6129408   9.2840000  78.4689408 138.1719408  10.0410000
  78.1489408 139.1559408   8.9360000  69.0639408 128.6819408  17.8260000
  68.4579408 128.2489408  18.4280000  69.3939408 127.9759408  17.2700000
  71.2259408 131.3479408   5.7040000  70.6419408 131.7979408   6.3140000
  71.6789408 130.6969408   6.2400000  77.4669408 135.2269408  17.9080000
  77.9479408 135.1439408  18.7320000  78.1319408 135.1079408  17.2300000
  82.0799408 129.5039408   6.3360000  81.9909408 129.7379408   5.4120000
  82.7389408 130.1109408   6.6740000  65.6149408 133.6859408   8.9500000
  65.7649408 133.7169408   9.8950000  64.7539408 134.0859408   8.8300000
  89.3079408 138.9599408  15.2020000  89.6479408 139.5329408  15.8900000
  89.8979408 139.0979408  14.4610000  62.5329408 127.1629408  28.8470000
  63.2739408 127.5749408  29.2930000  62.8629408 126.9599408  27.9720000
  72.9309408 145.5519408  14.1980000  73.8639408 145.3599408  14.1090000
  72.5239408 145.1209408  13.4470000  88.0369408 125.5629408   5.5490000
  87.0969408 125.6829408   5.4130000  88.2159408 124.6789408   5.2300000
  78.3629408 141.3589408   0.6810000  77.7089408 142.0489408   0.5670000
  78.2789408 140.8169408  -0.1030000  70.6849408 135.9839408   6.6650000
  71.1339408 136.8249408   6.7490000  69.8769408 136.0929408   7.1670000
  78.4319408 124.8569408  25.0460000  78.1149408 124.5139408  25.8810000
  78.3719408 124.1159408  24.4430000  88.7999408 129.9389408  15.7730000
  87.8609408 129.9999408  15.5990000  88.8569408 129.5959408  16.6650000
  62.3889408 140.7699408   3.8460000  63.1819408 141.3059408   3.8470000
  62.6729408 139.9199408   4.1820000  77.9779408 134.4559408  10.6650000
  77.2519408 134.3639408  10.0480000  77.7039408 133.9559408  11.4340000
  69.6549408 144.0029408  30.1860000  69.0479408 144.5939408  29.7410000
  70.5229408 144.3469408  29.9750000  73.5299408 134.6779408   0.5350000
  72.9009408 133.9769408   0.7060000  73.0779408 135.2629408  -0.0730000
  76.9329408 142.0279408  13.3670000  77.2779408 142.9039408  13.1980000
  77.6629408 141.4399408  13.1730000  64.4319408 148.7859408  26.2340000
  64.8979408 148.1089408  25.7430000  63.7839408 149.1269408  25.6170000
  71.7599408 143.1179408   8.5430000  71.6899408 143.8819408   7.9720000
  72.0759408 142.4179408   7.9710000  74.5309408 146.0489408   1.8910000
  75.1549408 146.0429408   1.1650000  74.9719408 145.5639408   2.5890000
  61.5889408 127.8679408   5.1380000  61.9129408 127.0799408   4.7030000
  62.3749408 128.2939408   5.4810000  64.3779408 121.6949408  16.6380000
  63.4469408 121.8319408  16.4640000  64.7679408 121.5709408  15.7730000
  76.9779408 134.3809408  28.3850000  77.8199408 133.9829408  28.6060000
  77.1409408 134.8459408  27.5640000  71.0189408 122.1809408  18.1460000
  70.7569408 123.1019408  18.1390000  71.6919408 122.1279408  18.8240000
  75.1549408 120.6799408   8.8720000  74.7649408 121.4279408   8.4200000
  75.0899408 119.9599408   8.2450000  75.4189408 134.0349408  13.0950000
  74.8099408 133.9809408  13.8320000  74.8679408 134.2559408  12.3440000
  66.8749408 146.9259408   9.7580000  67.0919408 147.8089408  10.0560000
  67.0169408 146.9499408   8.8120000  72.2769408 129.0759408  26.9600000
  71.8759408 129.8269408  26.5240000  72.9859408 129.4519408  27.4820000
  88.5349408 135.5709408   7.6430000  88.4489408 136.1489408   6.8850000
  88.1879408 136.0809408   8.3750000  68.3539408 126.3839408   3.5020000
  69.0179408 126.9059408   3.0520000  67.9879408 126.9769408   4.1590000
  84.3849408 129.4109408  17.3650000  84.7209408 128.5179408  17.2950000
  84.2909408 129.5589408  18.3060000  67.7939408 133.7699408   7.0920000
  67.1589408 133.5089408   7.7590000  68.3649408 133.0079408   6.9930000
  69.0859408 122.8069408  12.3010000  69.2659408 123.2629408  11.4790000
  69.7729408 123.1059408  12.8980000  75.8509408 133.9929408   9.0110000
  75.1649408 134.5659408   8.6690000  75.4019408 133.1709408   9.2080000
  67.6489408 137.3009408  12.5020000  67.1329408 137.8939408  13.0490000
  67.6139408 136.4609408  12.9600000  82.4549408 123.6049408   2.6640000
  81.6819408 123.5749408   2.1000000  82.7979408 124.4919408   2.5530000
  81.2289408 140.5009408  14.9470000  80.8759408 141.0379408  15.6570000
  81.9479408 141.0209408  14.5870000  67.2079408 128.2029408  29.8520000
  67.3599408 128.7419408  30.6280000  68.0649408 128.1409408  29.4310000
  70.4099408 145.8839408  26.7950000  70.4019408 146.2829408  25.9250000
  69.6159408 146.2129408  27.2170000  71.1919408 146.2969408   1.5580000
  71.2509408 147.2469408   1.6600000  71.6389408 145.9449408   2.3270000
  64.6869408 123.6109408  12.3470000  63.8339408 123.9499408  12.0730000
  65.2309408 124.3909408  12.4540000  73.1469408 132.3189408  27.0580000
  73.5739408 132.0469408  26.2450000  73.8619408 132.4039408  27.6880000
  71.3659408 140.8169408  12.9800000  71.3449408 141.5859408  12.4090000
  72.2869408 140.5579408  12.9990000  75.5709408 124.5019408  23.2080000
  76.1229408 125.1429408  22.7600000  75.2669408 123.9189408  22.5130000
  74.5329408 139.5259408   7.8070000  74.0209408 138.9609408   8.3850000
  73.9069408 140.1799408   7.4950000  64.9169408 134.0799408   6.0540000
  65.2429408 133.2809408   6.4690000  64.3959408 134.5079408   6.7330000
  71.9419408 124.9309408  18.4310000  72.8109408 125.3169408  18.3240000
  71.7659408 124.9919408  19.3700000  62.9999408 143.7209408   4.9930000
  62.5599408 143.1309408   5.6050000  63.7909408 143.2499408   4.7310000
  69.3909408 125.9979408  13.5600000  68.4679408 125.8209408  13.7410000
  69.5449408 125.6099408  12.6990000  66.4589408 139.0469408  14.2110000
  65.7969408 138.9559408  14.8960000  67.0899408 139.6709408  14.5690000
  72.7269408 124.7419408  13.0350000  73.5559408 124.2759408  12.9230000
  72.3699408 124.4009408  13.8560000  70.9189408 135.5149408  11.9010000
  70.0709408 135.1079408  11.7250000  70.7289408 136.4519408  11.9560000
  71.2779408 128.6519408   9.3500000  71.3409408 127.9429408   9.9910000
  70.6729408 129.2789408   9.7440000  67.3769408 148.8119408   1.6800000
  66.6809408 148.2869408   1.2850000  67.2869408 148.6599408   2.6210000
  75.6899408 138.6069408   4.5490000  75.8669408 138.6029408   3.6090000
  76.2479408 137.9129408   4.9010000  66.0069408 120.8799408   4.4630000
  66.8559408 120.4709408   4.2940000  66.1609408 121.8149408   4.3310000
  69.4119408 128.7209408   6.5640000  69.9009408 128.4549408   7.3430000
  70.0189408 129.2819408   6.0810000  70.9679408 138.3959408  15.9660000
  71.6029408 137.8829408  15.4660000  70.1389408 137.9329408  15.8490000
  69.0729408 130.0809408   9.9790000  69.3089408 130.3209408  10.8750000
  68.1399408 129.8699408  10.0250000  68.6629408 143.0849408   5.7270000
  69.1639408 142.7029408   6.4480000  69.3049408 143.2099408   5.0280000
  72.1909408 123.0269408   6.6490000  72.5829408 123.5069408   7.3790000
  72.8259408 122.3399408   6.4440000  62.7639408 130.3209408  15.9390000
  62.1979408 130.7929408  15.3280000  62.1579408 129.8679408  16.5260000
  63.7929408 125.9289408  18.5460000  64.5359408 125.3939408  18.2680000
  63.0419408 125.5539408  18.0850000  67.2649408 125.4869408  10.7700000
  66.6499408 126.0649408  10.3180000  67.6409408 124.9459408  10.0760000
  64.4899408 124.3149408   8.6110000  63.8189408 123.6769408   8.8510000
  64.7519408 124.0669408   7.7250000  78.2059408 131.1969408  11.0920000
  78.7899408 131.1579408  10.3350000  77.3289408 131.0939408  10.7250000
  72.6159408 122.7419408   2.6460000  72.2479408 123.1119408   1.8440000
  73.2749408 123.3789408   2.9240000  83.6789408 139.2509408  25.6230000
  82.9449408 138.9459408  26.1550000  84.0749408 139.9529408  26.1400000
  63.9959408 130.0319408  19.2360000  64.7059408 129.4889408  18.8920000
  64.1359408 130.8909408  18.8370000  73.6049408 129.6929408   3.1680000
  74.0819408 128.9459408   3.5280000  74.2209408 130.4239408   3.2310000
  70.6809408 131.2849408   0.4750000  70.9629408 131.9649408  -0.1370000
  70.5939408 131.7389408   1.3140000  66.1979408 148.7859408   7.3920000
  65.6229408 149.3219408   7.9370000  66.9389408 149.3569408   7.1890000
  75.6389408 126.6119408   8.9870000  75.6199408 126.6119408   9.9440000
  76.5409408 126.8459408   8.7660000  76.1629408 140.3279408   9.8410000
  75.8969408 140.1039408   8.9500000  75.7949408 139.6309408  10.3840000
  78.8369408 139.6889408  13.6890000  79.6529408 139.8079408  14.1740000
  79.0429408 139.9709408  12.7980000  67.3569408 134.9479408  14.1060000
  66.7409408 134.6609408  14.7800000  67.7119408 134.1349408  13.7450000
  82.1589408 131.9809408   8.6940000  82.2029408 132.9319408   8.6020000
  82.8179408 131.6489408   8.0840000  61.5759408 121.8369408  12.3790000
  61.6699408 121.3979408  11.5340000  61.7809408 122.7539408  12.1980000
  69.7979408 133.5629408  20.7020000  69.9119408 132.6129408  20.6900000
  70.2249408 133.8659408  19.9000000  65.8779408 131.1339408  28.3530000
  66.6849408 131.2089408  28.8610000  65.1959408 130.9759408  29.0060000
  72.6309408 133.1459408  14.3340000  72.2629408 133.3379408  13.4710000
  72.9819408 132.2589408  14.2530000  70.1429408 128.5439408   2.9460000
  70.7999408 128.6049408   2.2530000  70.5939408 128.8529408   3.7320000
  64.7069408 135.4199408  23.1280000  64.5639408 135.8999408  22.3120000
  64.9709408 136.0909408  23.7570000  62.9149408 136.4549408  14.3630000
  63.5279408 137.1049408  14.7050000  62.2449408 136.3749408  15.0420000
  69.9729408 121.6209408   9.1660000  70.8859408 121.7839408   8.9290000
  70.0159408 121.2549408  10.0490000  72.5159408 129.3919408   7.0440000
  72.9239408 128.9559408   6.2950000  72.6179408 128.7729408   7.7670000
  80.6819408 134.5549408  10.8580000  80.4699408 134.9719408  11.6930000
  79.8309408 134.3559408  10.4670000  78.2509408 130.8129408  27.5970000
  77.9399408 130.8729408  26.6940000  79.1989408 130.9269408  27.5330000
  65.0659408 132.1979408  18.1450000  65.8319408 131.7159408  17.8330000
  64.6889408 132.5859408  17.3550000  64.4699408 126.9909408  21.0950000
  64.3759408 126.7169408  20.1820000  64.4599408 127.9469408  21.0610000
  76.7989408 128.8369408  21.9130000  76.1259408 128.2629408  21.5470000
  77.3839408 128.2479408  22.3890000  64.3569408 144.6489408  13.1330000
  65.1819408 145.0809408  12.9100000  63.8739408 145.2999408  13.6410000
  66.0859408 134.8579408  11.4430000  65.4669408 135.3769408  10.9300000
  65.9959408 135.1919408  12.3360000  73.4409408 136.1729408   8.5040000
  73.3789408 135.9409408   7.5780000  72.7799408 136.8539408   8.6260000
  68.5019408 124.1379408   8.6120000  68.8629408 124.4539408   7.7840000
  68.9809408 123.3279408   8.7890000  69.2219408 149.9579408  19.5540000
  69.1209408 149.3189408  18.8490000  69.7729408 150.6449408  19.1780000
  65.8979408 146.1729408  15.7840000  64.9769408 146.4009408  15.6590000
  66.2559408 146.1269408  14.8980000  64.1719408 128.0399408   6.5580000
  63.5999408 128.3309408   7.2680000  64.3229408 128.8259408   6.0330000
  80.9309408 128.1219408  17.8530000  80.4899408 128.4399408  18.6410000
  81.2959408 128.9089408  17.4480000  63.5469408 149.1949408  14.3880000
  63.4529408 148.7309408  13.5560000  64.0779408 149.9629408  14.1760000
  67.6459408 135.5889408   0.5610000  68.1379408 134.9059408   1.0160000
  68.1499408 136.3889408   0.7110000  69.7719408 122.8839408   5.6410000
  70.6209408 122.7349408   6.0590000  69.7999408 122.3549408   4.8440000
  69.0259408 136.3989408  15.6100000  68.7289408 136.0099408  16.4320000
  68.4029408 136.0809408  14.9560000  84.9449408 130.7089408  22.4340000
  84.4059408 130.1399408  22.9830000  84.3479408 131.3989408  22.1430000
  72.9919408 126.0789408  20.9050000  73.2669408 126.9929408  20.8340000
  73.4549408 125.7489408  21.6750000  73.9919408 130.0189408  29.0960000
  74.7189408 129.4589408  29.3680000  74.3539408 130.5539408  28.3890000
  75.0069408 127.1169408  28.0480000  75.2319408 127.0419408  28.9750000
  74.1499408 126.6969408  27.9740000  79.7759408 137.0209408   6.7930000
  79.6259408 137.7959408   6.2530000  79.1299408 137.0889408   7.4960000
  84.9269408 135.3199408   9.5870000  85.3159408 134.5869408  10.0650000
  85.3279408 135.2809408   8.7190000  65.7419408 131.5499408  12.2860000
  65.5099408 131.7689408  13.1890000  66.5849408 131.9799408  12.1450000
  89.0709408 122.3679408  13.5800000  89.1899408 122.7229408  14.4610000
  89.9599408 122.2269408  13.2550000  75.3469408 127.8619408  13.5700000
  75.5059408 127.1419408  12.9600000  76.2199408 128.1279408  13.8590000
  73.9419408 147.7469408  11.2050000  73.6119408 147.6369408  12.0970000
  73.2129408 148.1429408  10.7270000  61.1999408 137.8119408  29.4490000
  61.9049408 138.0979408  30.0290000  61.6469408 137.3699408  28.7280000
  62.4759408 133.4329408  11.5170000  62.9669408 133.3179408  12.3310000
  62.3929408 134.3819408  11.4200000  64.0809408 130.9719408  10.1910000
  63.3579408 131.5829408  10.3280000  64.6869408 131.1519408  10.9110000
  62.4699408 122.2689408   9.4860000  61.9209408 123.0069408   9.2190000
  61.8819408 121.5139408   9.4670000  63.0199408 136.0899408  11.5960000
  62.9749408 136.1599408  12.5500000  63.1089408 136.9939408  11.2930000
  72.5739408 134.1909408  16.7410000  72.6879408 133.7449408  15.9010000
  73.3929408 134.6689408  16.8720000  75.7109408 132.0629408  28.0250000
  76.5479408 131.6029408  28.0980000  75.9129408 132.9669408  28.2670000
  69.4949408 135.9309408   3.8740000  69.7659408 135.7989408   4.7830000
  69.9059408 136.7569408   3.6190000  68.0449408 138.2839408  17.2700000
  67.8129408 137.5769408  17.8720000  68.2419408 137.8409408  16.4450000
  68.0199408 121.0509408  14.0630000  68.1869408 121.8039408  13.4960000
  68.5849408 121.1939408  14.8240000  72.3299408 143.4389408   4.0320000
  71.5709408 142.9229408   3.7610000  73.0749408 143.0059408   3.6160000
  63.8559408 148.2669408   6.1100000  63.5329408 149.1219408   5.8250000
  64.7399408 148.4389408   6.4320000  62.1229408 142.1309408  17.8600000
  62.8419408 141.8089408  17.3180000  62.3069408 143.0629408  17.9750000
  78.9909408 128.3469408   5.9690000  79.9089408 128.3779408   6.2400000
  78.8449408 127.4349408   5.7200000  65.8029408 136.0779408   4.3120000
  66.5949408 135.6419408   3.9980000  65.6179408 135.6609408   5.1540000
  75.6349408 131.6509408   3.7230000  76.4549408 131.1739408   3.8460000
  75.4639408 132.0589408   4.5730000  73.6209408 135.0579408  11.2560000
  72.8359408 135.3699408  11.7060000  73.5009408 135.3309408  10.3470000
  66.7349408 130.4089408  16.9120000  67.6709408 130.2119408  16.8740000
  66.3309408 129.5979408  17.2210000  69.1019408 139.7299408  22.1000000
  69.8669408 139.3959408  21.6300000  69.3469408 140.6199408  22.3550000
  68.8879408 140.4159408   1.5990000  68.2829408 139.7779408   1.9770000
  68.7719408 141.2019408   2.1330000  73.4439408 120.5639408   5.1250000
  74.2609408 120.5429408   5.6220000  73.7179408 120.5099408   4.2090000
  68.1309408 137.3219408   9.6840000  68.1119408 138.2399408   9.4110000
  67.9969408 137.3509408  10.6310000  71.8609408 128.8709408   0.8180000
  71.4729408 129.7019408   0.5460000  72.8049408 129.0259408   0.7920000
  74.0549408 140.7059408  19.8650000  73.1819408 140.5199408  20.2090000
  74.1139408 140.1809408  19.0660000  68.7819408 134.8269408  10.5120000
  67.8989408 134.6719408  10.8490000  68.7299408 135.6859408  10.0920000
  85.7759408 135.5769408  15.5950000  86.5949408 135.4519408  15.1160000
  85.8309408 134.9639408  16.3280000  74.7319408 125.0299408   6.7360000
  75.2879408 124.2539408   6.6670000  75.2679408 125.6689408   7.2060000
  74.7409408 138.3739408  28.8420000  75.0239408 139.2489408  28.5730000
  75.2609408 138.1829408  29.6220000  74.8019408 135.4929408  16.8610000
  74.9129408 136.3009408  16.3600000  75.6729408 135.3059408  17.2110000
  67.7279408 133.2519408  26.7680000  67.4999408 132.7349408  27.5410000
  68.4259408 133.8349408  27.0650000  78.8059408 138.6449408  29.5420000
  79.1739408 137.7629408  29.4910000  79.4979408 139.2139408  29.2050000
  87.4529408 132.4809408  12.6510000  86.9679408 131.6609408  12.7380000
  88.3159408 132.2169408  12.3320000  79.8039408 130.9529408   8.8190000
  80.7069408 131.2619408   8.7410000  79.2889408 131.5889408   8.3220000
  73.6759408 132.0399408   8.3110000  72.9579408 132.4469408   8.7970000
  73.3909408 131.1369408   8.1740000  64.4319408 119.9699408   9.1520000
  64.9539408 120.3289408   9.8690000  63.7079408 120.5879408   9.0490000
  63.1979408 135.2869408   7.9950000  62.5999408 135.4139408   7.2590000
  62.7259408 134.7069408   8.5910000  73.4919408 130.2479408  15.4210000
  74.1179408 130.9619408  15.5410000  74.0109408 129.5349408  15.0460000
  88.8019408 126.7519408  15.1170000  88.5949408 126.3399408  14.2790000
  87.9779408 127.1509408  15.3980000  66.3509408 132.5299408  20.8020000
  65.7639408 132.6359408  20.0530000  66.8079408 133.3679408  20.8690000
  62.1939408 122.4329408  15.0200000  61.9859408 122.0149408  14.1840000
  62.7589408 123.1699408  14.7850000  72.9529408 138.1909408   4.7110000
  72.8259408 138.4779408   5.6150000  73.8859408 138.3269408   4.5450000
  71.2079408 133.2309408   9.6310000  71.4929408 133.1859408  10.5430000
  70.4689408 133.8389408   9.6400000  65.2889408 136.5969408   1.2440000
  66.1979408 136.4009408   1.4730000  65.0949408 136.0109408   0.5130000
  65.9609408 121.2959408  10.8390000  66.7089408 121.8909408  10.8830000
  65.2019408 121.8499408  11.0230000  74.0369408 129.3019408  10.0320000
  73.0859408 129.2279408   9.9500000  74.3769408 128.5189408   9.5980000
  73.8409408 135.9929408  19.9150000  73.3829408 135.6059408  19.1690000
  74.1529408 136.8389408  19.5910000  77.9259408 133.8949408  14.1400000
  76.9729408 133.9149408  14.2200000  78.2449408 134.1439408  15.0080000
  77.9639408 124.7779408   0.3340000  77.0519408 125.0459408   0.4500000
  78.1979408 124.3589408   1.1630000  66.0819408 131.7559408   3.1260000
  65.2619408 132.2489408   3.0890000  66.7199408 132.3779408   3.4750000
  80.7849408 131.9599408  17.6010000  81.3309408 131.2469408  17.2700000
  80.9109408 132.6709408  16.9720000  76.0959408 130.7469408   9.5820000
  75.3069408 130.3579408   9.9590000  76.3329408 130.1619408   8.8630000
  71.8799408 131.9409408   3.1400000  71.5959408 131.9629408   4.0530000
  72.2839408 131.0799408   3.0340000  70.6029408 138.1769408  12.3180000
  69.6709408 138.0139408  12.4610000  70.6839408 139.1309408  12.3230000
  76.8019408 140.5669408  15.9690000  77.5409408 139.9729408  15.8380000
  76.7199408 141.0359408  15.1380000  66.3819408 123.8779408   6.2780000
  66.8239408 124.1609408   7.0780000  66.7769408 124.4079408   5.5850000
  77.8219408 130.6709408  24.7140000  77.0509408 130.2079408  24.3860000
  78.5589408 130.2549408  24.2680000  80.9929408 136.8169408   1.4860000
  81.3499408 137.6909408   1.3270000  80.4049408 136.9299408   2.2320000
  87.1529408 133.0869408  16.5300000  87.5009408 132.5009408  17.2020000
  86.4709408 132.5749408  16.0950000  88.4819408 130.9349408   9.6410000
  88.8959408 131.1749408  10.4700000  88.9019408 131.4979408   8.9910000
  74.8989408 146.5689408   8.8670000  74.8359408 146.8249408   9.7880000
  74.8469408 145.6129408   8.8800000  66.4319408 129.2409408   9.6680000
  65.6539408 129.7959408   9.6110000  66.1929408 128.4429408   9.1960000
  77.9739408 130.1959408   4.3400000  78.5639408 130.9399408   4.4650000
  78.2259408 129.5729408   5.0210000  74.5639408 131.3319408  12.5050000
  75.3129408 131.9219408  12.4160000  74.8419408 130.5249408  12.0710000
  65.8949408 139.3489408  10.4970000  65.2319408 139.5939408  11.1420000
  65.4229408 138.8129408   9.8600000  70.5329408 124.8369408  11.0850000
  70.4469408 125.5079408  10.4070000  71.3799408 125.0149408  11.4930000
  68.3729408 143.4639408  13.1860000  69.1639408 143.9339408  12.9220000
  67.6539408 143.9979408  12.8490000  68.0019408 133.8009408   4.2870000
  68.6839408 134.4149408   4.0160000  67.9259408 133.9279408   5.2330000
  68.5919408 140.0079408  11.6570000  67.6919408 139.6829408  11.6220000
  68.5009408 140.9549408  11.7650000  68.5059408 149.5499408   4.7200000
  69.2599408 149.8159408   4.1930000  68.6619408 149.9459408   5.5770000
  64.0379408 147.2559408   9.9530000  64.9729408 147.0479408   9.9550000
  63.9999408 148.1869408   9.7350000  77.8569408 125.7969408   6.3200000
  78.7739408 125.6119408   6.1180000  77.3679408 125.4069408   5.5960000
  84.8209408 127.4299408   8.6100000  84.9309408 126.7309408   7.9650000
  85.4989408 128.0679408   8.3900000  69.6499408 131.8419408   7.8760000
  70.4039408 132.2779408   8.2730000  69.2779408 131.3139408   8.5820000
  77.8409408 131.3329408  21.0730000  77.5779408 130.4969408  21.4570000
  77.0239408 131.8229408  20.9800000  71.6449408 128.1269408  23.6070000
  71.9199408 127.4939408  24.2710000  71.9309408 128.9729408  23.9510000
  78.3389408 128.6359408  17.0160000  78.1949408 129.4509408  17.4970000
  79.2549408 128.4159408  17.1850000  67.8239408 129.7049408   1.9020000
  68.6989408 129.3949408   2.1340000  67.3699408 129.7939408   2.7400000
  67.4669408 129.5539408  26.4890000  67.0789408 130.1509408  27.1290000
  67.8689408 130.1279408  25.8380000  73.4879408 128.3599408  17.7820000
  72.5719408 128.4729408  18.0380000  73.7179408 129.1799408  17.3450000
  87.1329408 133.4899408   6.5760000  86.2129408 133.7239408   6.4540000
  87.5309408 134.2739408   6.9540000  65.3919408 129.8369408  21.5440000
  64.4879408 130.0839408  21.7380000  65.8819408 130.6569408  21.5990000
  75.6989408 133.6459408  21.5090000  74.9289408 134.2119408  21.4530000
  75.7449408 133.3939408  22.4310000  65.3759408 125.8509408   4.5400000
  65.9379408 126.5929408   4.3170000  65.1269408 126.0039408   5.4520000
  81.4999408 140.8909408  21.6630000  81.5299408 141.8449408  21.5890000
  81.2169408 140.5929408  20.7990000  76.1989408 132.7839408  24.3270000
  76.9519408 132.3809408  24.7590000  75.5079408 132.1229408  24.3830000
  80.3079408 132.6819408  21.5200000  79.5659408 132.7069408  22.1230000
  80.0339408 133.2229408  20.7790000  83.5869408 131.2759408   3.3410000
  82.6949408 131.6219408   3.3230000  84.1119408 131.9439408   2.9000000
  67.8799408 146.0279408  23.7110000  68.5289408 146.2299408  23.0370000
  67.0729408 145.8609408  23.2240000  78.4169408 134.7709408  20.7260000
  78.8399408 135.1919408  21.4750000  77.5249408 134.5919408  21.0240000
  74.9759408 135.1649408  23.9550000  75.6309408 135.7189408  23.5300000
  75.4869408 134.4979408  24.4130000  80.1269408 137.4139408  17.2570000
  80.8569408 138.0169408  17.1180000  80.2649408 137.0689408  18.1390000
  77.7229408 129.0149408  14.5310000  78.2079408 129.8399408  14.5330000
  77.7629408 128.7109408  15.4380000  77.0589408 124.2909408   3.6940000
  77.3229408 123.4279408   4.0130000  76.3329408 124.1129408   3.0950000
  72.1429408 133.0499408  23.4810000  72.7959408 133.1569408  22.7890000
  71.8279408 133.9369408  23.6530000  69.2999408 124.7489408  16.6790000
  68.4779408 124.7659408  16.1890000  69.0309408 124.7099408  17.5970000
  70.2849408 129.8869408  12.5980000  70.8409408 129.1149408  12.4900000
  70.1829408 129.9779408  13.5460000  71.5199408 130.6549408  24.6330000
  71.7749408 131.4879408  24.2350000  70.7539408 130.3749408  24.1320000
  88.8309408 127.2719408   2.2880000  88.8699408 126.9779408   3.1980000
  89.5399408 126.7969408   1.8530000  72.8319408 126.0959408  25.8560000
  72.2219408 126.7999408  26.0740000  72.2899408 125.4319408  25.4300000
  82.0739408 129.3869408  29.4840000  82.9599408 129.0269408  29.4310000
  81.4999408 128.6319408  29.3590000  77.8369408 125.8009408  18.3520000
  78.7399408 125.6199408  18.0890000  77.7859408 126.7559408  18.3950000
  75.8959408 139.4069408  24.8660000  75.5879408 138.8379408  25.5710000
  76.8499408 139.3899408  24.9430000  72.3099408 137.8379408  18.4750000
  71.5999408 137.7869408  17.8350000  72.9599408 138.4099408  18.0670000
  81.5769408 130.0929408  13.5580000  80.8019408 130.5149408  13.9290000
  81.6999408 130.5189408  12.7100000  63.0429408 132.8729408  25.6090000
  63.5349408 132.7249408  24.8020000  62.7319408 132.0039408  25.8640000
  74.6799408 149.2389408  26.7010000  75.3729408 149.7719408  26.3100000
  74.3379408 149.7769408  27.4150000  65.6739408 143.6199408   0.0820000
  66.0949408 143.8689408   0.9050000  66.3839408 143.2649408  -0.4520000
  63.0279408 138.2679408   1.4330000  63.1569408 139.2159408   1.4620000
  63.8729408 137.9189408   1.1520000  65.6639408 128.1749408  18.2520000
  66.2629408 127.8789408  18.9380000  65.1889408 127.3859408  17.9920000
  65.9109408 126.2639408  23.1760000  65.8639408 125.3079408  23.1610000
  65.2579408 126.5469408  22.5370000  63.5549408 132.7819408   3.2750000
  62.7219408 132.4139408   3.5720000  63.4619408 133.7249408   3.4110000
  63.4729408 129.6029408  27.1470000  63.7089408 128.7169408  26.8730000
  64.0979408 129.8149408  27.8400000  80.1159408 123.8369408  15.0270000
  80.6079408 124.5009408  14.5440000  79.2639408 123.8059408  14.5920000
  69.1499408 149.6889408  22.5040000  69.9349408 150.2339408  22.5540000
  69.1679408 149.3219408  21.6200000  70.2899408 136.9219408  26.2360000
  70.6129408 136.3839408  25.5120000  70.5349408 137.8159408  25.9980000
  65.6959408 126.5609408  27.9650000  66.2729408 126.7839408  27.2350000
  66.2299408 126.7069408  28.7460000  69.0229408 130.0999408  23.4030000
  68.3649408 130.6929408  23.7660000  68.5369408 129.3039408  23.1870000
  62.6359408 129.1879408  12.6550000  62.1249408 129.8089408  13.1730000
  61.9839408 128.6069408  12.2650000  70.1199408 121.7629408   3.4120000
  69.5699408 121.8339408   2.6310000  70.9739408 122.0939408   3.1340000
  75.5569408 145.5499408  26.2860000  74.8219408 144.9969408  26.0220000
  76.0899408 145.6339408  25.4950000  67.1549408 127.1399408  25.5410000
  66.6739408 127.0259408  24.7220000  67.2739408 128.0859408  25.6200000
  74.3109408 130.8199408  25.0000000  73.4729408 130.6859408  24.5580000
  74.6099408 129.9379408  25.2200000  84.7679408 126.0699408  17.1460000
  83.8289408 126.0299408  16.9640000  85.1819408 125.7409408  16.3480000
  65.1569408 131.4689408  15.1180000  64.3929408 131.0489408  15.5120000
  65.9069408 131.0229408  15.5130000  76.3049408 137.8459408  18.6500000
  76.4699408 138.5339408  18.0040000  76.6669408 137.0539408  18.2540000
  71.4229408 121.4139408  22.3640000  71.7979408 121.2949408  23.2370000
  72.1729408 121.6199408  21.8060000  64.3739408 122.0349408  22.5920000
  65.0449408 122.5869408  22.9950000  63.7539408 122.6539408  22.2080000
  67.8019408 136.5439408   7.0640000  67.6149408 135.6139408   7.1890000
  67.8329408 136.9049408   7.9500000  69.5459408 134.8449408  27.9910000
  69.9689408 135.6099408  27.6000000  69.0599408 135.1949408  28.7380000
  61.7749408 120.6259408  28.9360000  62.5749408 121.0719408  29.2140000
  61.1079408 121.3129408  28.9280000  72.7309408 132.2139408  18.9580000
  72.2289408 131.4239408  18.7610000  72.6519408 132.7509408  18.1690000
  63.0389408 147.9559408  28.5700000  63.2659408 147.7619408  27.6600000
  62.9049408 148.9029408  28.5870000  68.8229408 139.2789408  28.8730000
  69.0599408 138.7649408  29.6450000  68.2279408 139.9509408  29.2050000
  70.8119408 124.5099408  24.7060000  69.9129408 124.5729408  25.0290000
  70.7219408 124.4639408  23.7540000  68.1589408 131.4079408  29.5170000
  69.1069408 131.5379408  29.5250000  67.9899408 130.8219408  30.2550000
  67.4109408 128.2469408  22.5390000  67.0039408 127.3889408  22.6570000
  66.8979408 128.6629408  21.8460000  88.9339408 119.9049408  27.3680000
  89.3039408 120.6489408  27.8430000  89.4589408 119.8439408  26.5700000
  73.0339408 134.4019408   3.2410000  73.4299408 134.6769408   2.4150000
  72.6019408 133.5729408   3.0360000  69.2199408 130.8319408  20.8010000
  68.2959408 130.9889408  20.6070000  69.2279408 130.5439408  21.7140000
  68.1889408 137.1529408  23.5900000  69.0689408 137.0679408  23.9560000
  67.9749408 138.0809408  23.6910000  67.2109408 128.0059408   5.3860000
  66.6419408 128.7579408   5.5510000  67.9689408 128.1489408   5.9520000
  90.1159408 128.1649408  11.4220000  90.1929408 127.2509408  11.1470000
  89.2939408 128.4639408  11.0340000  81.0649408 129.6399408   2.0140000
  81.5329408 129.0169408   2.5690000  81.5449408 129.6309408   1.1850000
  64.8949408 138.8529408   6.4910000  65.2919408 139.6979408   6.7040000
  65.4089408 138.5259408   5.7530000  60.8779408 149.1329408   1.2170000
  61.1779408 149.6449408   0.4660000  61.0379408 148.2229408   0.9670000
  66.9089408 124.5699408  15.4710000  66.4269408 125.1219408  14.8560000
  66.2819408 124.3849408  16.1700000  75.2509408 128.2789408  25.3330000
  74.5369408 127.6459408  25.4040000  75.7219408 128.2039408  26.1630000
  76.1519408 136.8349408   6.9130000  75.4469408 136.5409408   6.3350000
  75.7099408 137.0769408   7.7270000  61.6169408 129.6609408  25.2060000
  62.3259408 129.5369408  25.8370000  62.0529408 129.9679408  24.4120000
  84.0269408 139.3799408  21.4100000  84.2849408 138.4959408  21.6720000
  83.1719408 139.5119408  21.8210000  74.3959408 138.1949408  10.7400000
  74.3709408 138.1429408  11.6950000  74.2869408 137.2889408  10.4480000
  65.1149408 124.0059408  26.8730000  64.1869408 124.1409408  26.6820000
  65.3489408 124.7299408  27.4530000  64.5679408 132.7609408  23.3450000
  64.5269408 133.7069408  23.4870000  64.8839408 132.6679408  22.4460000
  74.6329408 143.1429408  10.1660000  74.8209408 143.6079408   9.3500000
  74.7559408 142.2189408   9.9490000  75.3159408 132.0549408  16.3340000
  74.9349408 132.8129408  16.7780000  76.1729408 131.9419408  16.7450000
  82.2929408 137.8109408  23.8080000  82.1829408 137.0259408  24.3450000
  82.7159408 138.4419408  24.3890000  69.7159408 137.2639408   0.6440000
  70.4809408 136.8889408   0.2080000  70.0779408 137.7609408   1.3780000
  69.6429408 147.8269408  24.9720000  69.4569408 147.5769408  24.0670000
  70.3899408 148.4219408  24.9080000  67.2109408 131.8149408  24.3940000
  66.3699408 132.1359408  24.0660000  67.5599408 132.5409408  24.9100000
  60.1669408 128.8079408  20.3710000  59.8829408 128.0049408  20.8070000
  59.9809408 129.5029408  21.0020000  71.3649408 129.9299408  18.7550000
  70.7509408 129.2719408  18.4300000  71.2129408 129.9549408  19.7000000
  74.3869408 140.9349408   1.0510000  73.5169408 141.2199408   0.7720000
  74.8489408 140.7409408   0.2360000  70.7769408 129.9669408  15.3550000
  71.7099408 130.1599408  15.2610000  70.7469408 129.1889408  15.9110000
  63.5569408 127.1909408  26.0440000  64.3569408 126.6719408  26.1280000
  63.4109408 127.2549408  25.1000000  79.8279408 135.7489408  13.0870000
  80.5869408 135.7009408  13.6680000  79.2939408 134.9909408  13.3260000
  60.9909408 134.1799408  29.6390000  61.5389408 134.9439408  29.4570000
  60.9489408 134.1369408  30.5940000  71.3459408 133.1939408  28.8840000
  70.7059408 133.7409408  28.4290000  71.9039408 132.8469408  28.1880000
  88.4329408 121.3169408  17.7720000  88.3759408 120.3929408  18.0160000
  88.3789408 121.7879408  18.6040000  76.9629408 136.6139408  22.6300000
  76.8069408 137.5369408  22.8310000  77.8629408 136.5879408  22.3060000
  86.9299408 131.9079408   1.8610000  86.9209408 132.4829408   2.6270000
  87.6339408 131.2839408   2.0360000  75.8339408 123.3109408   1.4930000
  76.3929408 122.5349408   1.4550000  75.4889408 123.4019408   0.6050000
  60.8749408 123.4179408  23.9600000  60.5559408 122.5409408  23.7490000
  61.6379408 123.5389408  23.3940000  73.8929408 139.7199408  17.2500000
  73.8199408 140.5249408  16.7370000  74.7049408 139.3139408  16.9450000
  70.5189408 127.1779408  15.9270000  70.5439408 126.3239408  16.3590000
  70.1409408 126.9999408  15.0660000  75.9109408 147.6449408  20.9300000
  75.4609408 146.9469408  20.4540000  75.2979408 147.8989408  21.6190000
  75.5579408 124.1889408  26.1150000  74.8629408 124.8469408  26.1260000
  75.7909408 124.1009408  25.1910000  69.3779408 128.0839408  28.2570000
  68.8019408 128.1769408  27.4980000  70.1869408 128.5259408  28.0000000
  67.9469408 127.0969408  19.7360000  67.9239408 126.1409408  19.7090000
  68.7869408 127.3059408  20.1460000  76.8989408 149.9439408   5.6780000
  76.7499408 149.2089408   6.2740000  76.6159408 149.6199408   4.8230000
  69.8299408 147.2289408   5.4010000  68.9329408 147.4469408   5.1470000
  70.3679408 147.5429408   4.6740000  78.4289408 149.3959408  28.3290000
  77.9429408 148.5779408  28.2260000  78.7299408 149.3839408  29.2380000
  61.1219408 126.0539408   9.6410000  60.6489408 126.3209408   8.8530000
  61.9209408 126.5809408   9.6320000  71.1519408 142.9069408  20.7830000
  71.1849408 141.9589408  20.9060000  70.5209408 143.0349408  20.0740000
  71.0869408 145.7069408   7.3250000  70.8939408 146.1889408   8.1280000
  70.7599408 146.2699408   6.6230000  62.6749408 138.7829408  10.9760000
  63.1839408 139.3299408  11.5740000  63.0549408 138.9529408  10.1140000
  73.9669408 135.5319408   5.7910000  74.1179408 134.5939408   5.6770000
  73.3829408 135.7699408   5.0710000  62.1679408 124.6769408  12.0900000
  61.6919408 125.0179408  11.3330000  61.8439408 125.1909408  12.8290000
  69.7219408 148.0699408   8.6160000  69.4219408 148.0619408   7.7080000
  69.1469408 148.6979408   9.0530000  71.7279408 140.3879408  21.2710000
  71.6209408 139.5149408  20.8940000  72.3419408 140.2629408  21.9960000
  88.0529408 145.8899408  12.2050000  88.2489408 146.7309408  12.6180000
  87.0989408 145.8779408  12.1250000  73.8599408 126.7389408   2.4700000
  73.0679408 127.2019408   2.1940000  73.5509408 126.0939408   3.1060000
  64.9999408 149.5199408  18.2440000  65.1339408 149.6689408  19.1800000
  64.6149408 150.3359408  17.9240000  70.5059408 139.8669408   6.1100000
  69.8559408 139.5139408   5.5030000  69.9949408 140.3779408   6.7380000
  73.0909408 125.1259408   4.6640000  73.6829408 125.1169408   5.4160000
  72.3979408 124.5079408   4.8970000  63.3269408 144.6049408  19.3680000
  64.2059408 144.2289408  19.3230000  63.4169408 145.4729408  18.9750000
  60.0379408 141.4779408   4.6990000  60.9309408 141.1549408   4.5830000
  59.4899408 140.8369408   4.2450000  75.7609408 145.8819408   4.7460000
  75.6409408 145.0999408   4.2060000  74.9199408 145.9989408   5.1890000
  74.2179408 140.3289408  13.1910000  74.4609408 141.2159408  12.9250000
  75.0449408 139.9189408  13.4450000  77.6079408 141.4719408  21.4500000
  77.1129408 142.1989408  21.8280000  77.2049408 140.6879408  21.8230000
  72.8429408 144.9729408  21.9030000  72.4879408 144.2539408  21.3800000
  73.3269408 145.5089408  21.2750000  64.6779408 142.4899408  16.5850000
  65.2769408 143.2359408  16.6160000  65.2109408 141.7439408  16.8610000
  65.7979408 141.3969408   6.7650000  66.4539408 141.7799408   7.3470000
  64.9819408 141.4349408   7.2640000  90.0089408 141.9419408  29.8560000
  89.3139408 142.0199408  30.5100000  89.9439408 141.0409408  29.5420000
  77.4849408 147.6719408   7.7400000  76.6389408 147.2889408   7.9700000
  77.8719408 147.0489408   7.1250000  62.3099408 138.7869408   5.5240000
  61.6629408 138.6259408   6.2120000  63.1549408 138.6519408   5.9530000
  74.3059408 148.7819408   7.3720000  74.7559408 148.1469408   7.9280000
  73.9669408 148.2639408   6.6420000  84.3189408 144.7159408  14.1060000
  84.8969408 143.9829408  13.8980000  84.5489408 145.3919408  13.4680000
  66.4959408 138.9039408   2.3800000  65.9039408 139.5189408   1.9470000
  65.9969408 138.0889408   2.4350000  65.8519408 147.3879408  29.9390000
  65.2559408 147.5509408  29.2070000  65.3619408 146.8089408  30.5230000
  76.4369408 139.0669408  21.2430000  76.5039408 138.3559408  20.6060000
  75.6939408 139.5899408  20.9420000  67.2649408 143.0889408   3.3920000
  67.5729408 143.8519408   2.9040000  67.6459408 143.1919408   4.2640000
  70.3759408 143.4779408  17.1180000  69.6279408 143.2069408  17.6500000
  70.5139408 142.7509408  16.5100000  75.4449408 145.1009408  14.0140000
  76.2459408 145.2109408  13.5020000  75.0809408 144.2679408  13.7140000
  69.1669408 125.4379408   5.7480000  68.8509408 125.6709408   4.8750000
  69.4189408 124.5179408   5.6750000  64.2729408 140.1469408  12.5690000
  63.8439408 140.9559408  12.8460000  65.0339408 140.0699408  13.1450000
  63.2469408 135.4839408   3.2100000  63.6359408 136.1419408   2.6340000
  63.7999408 135.4919408   3.9910000  64.1789408 137.7809408   8.9290000
  64.2309408 138.1619408   8.0530000  63.5919408 137.0319408   8.8310000
  71.1639408 149.3629408  14.0990000  71.9599408 149.0219408  14.5070000
  70.8289408 150.0059408  14.7250000  71.2709408 149.4239408   0.7540000
  71.1439408 149.1009408  -0.1380000  70.7259408 150.2099408   0.8040000
  70.1639408 134.3359408  17.9330000  69.7059408 133.4989408  17.8530000
  70.9369408 134.2409408  17.3770000  66.7049408 144.8669408   7.0240000
  67.3139408 144.3839408   6.4660000  66.0519408 145.2189408   6.4190000
  60.7809408 137.7779408   3.0700000  61.3749408 137.8329408   3.8190000
  61.3059408 138.0689408   2.3250000  66.9129408 146.0559408  13.0170000
  66.7609408 146.9919408  13.1450000  67.8609408 145.9539408  13.1010000
  69.9689408 145.5049408  11.5150000  70.0609408 146.2039408  12.1630000
  69.5309408 145.9229408  10.7730000  72.8559408 122.0519408   9.6080000
  73.6339408 121.5559408   9.8640000  72.6389408 122.5739408  10.3800000
  70.9059408 142.2719408   1.9450000  70.8709408 141.3879408   1.5790000
  70.4339408 142.8129408   1.3120000  60.6149408 134.7429408   2.4330000
  59.9859408 135.4539408   2.5520000  61.4659408 135.1429408   2.6100000
  75.8529408 143.8829408   7.9390000  75.9139408 143.7729408   6.9900000
  76.7569408 144.0099408   8.2250000  67.6779408 135.6369408  18.2270000
  67.3809408 135.6059408  19.1360000  68.4549408 135.0779408  18.2080000
  64.3649408 142.5619408  10.9050000  63.8259408 143.0119408  11.5560000
  65.0559408 143.1889408  10.6910000  71.6299408 143.2589408  11.2250000
  71.9139408 143.2529408  10.3110000  70.9499408 143.9319408  11.2610000
  63.3079408 142.3489408  14.1740000  63.6449408 143.1049408  13.6930000
  63.8179408 142.3319408  14.9840000  80.0859408 123.0319408   1.4180000
  80.4329408 122.3479408   0.8450000  79.2249408 122.7079408   1.6830000
  88.1769408 122.4219408  20.1510000  87.3749408 122.2089408  20.6290000
  88.4289408 123.2859408  20.4760000  79.2209408 148.9019408   9.3070000
  78.6819408 149.2899408   9.9960000  78.5979408 148.6619408   8.6210000
  60.9919408 119.9949408  25.7370000  61.7769408 120.0659408  25.1940000
  61.2419408 120.3889408  26.5730000  60.7819408 136.6869408  15.9170000
  60.1779408 136.2529408  16.5200000  60.3069408 137.4619408  15.6180000
  66.7389408 144.1779408   9.9850000  66.8389408 145.0859408  10.2700000
  66.8689408 144.2079408   9.0370000  70.4329408 121.4439408  15.7220000
  70.5989408 121.4719408  16.6650000  70.7079408 122.3039408  15.4050000
  71.3089408 139.2199408  25.3400000  72.0399408 139.3309408  24.7320000
  71.4799408 139.8519408  26.0380000  63.3309408 139.3729408  18.2010000
  62.4419408 139.5659408  18.5000000  63.8949408 139.6769408  18.9110000
  86.3379408 128.5209408  14.7070000  85.9319408 129.3879408  14.7270000
  85.5999408 127.9109408  14.7000000  63.1059408 141.9459408   8.1800000
  63.4189408 142.7029408   8.6760000  62.1519408 142.0229408   8.2010000
  75.4369408 143.2539408  20.0090000  76.0059408 143.1119408  19.2530000
  75.0009408 142.4129408  20.1430000  67.0619408 141.4499408   9.2770000
  67.2629408 142.2119408   9.8210000  66.5489408 140.8769408   9.8470000
  72.4839408 146.0199408  29.2340000  72.1589408 145.9759408  30.1330000
  71.7009408 146.1619408  28.7020000  72.0659408 148.8869408   9.7040000
  71.2279408 148.5389408   9.3980000  72.5209408 149.1529408   8.9050000
  71.2699408 146.0949408  16.5260000  71.8939408 146.0249408  15.8040000
  71.2699408 145.2259408  16.9290000  70.8659408 138.4719408   2.7640000
  70.6719408 139.4039408   2.8690000  71.5619408 138.2989408   3.3990000
  73.6439408 120.4429408   1.8470000  72.8629408 120.2199408   1.3410000
  73.6489408 121.3999408   1.8730000  63.1739408 120.5829408   4.5740000
  64.1289408 120.6499408   4.5680000  62.8779408 121.4079408   4.9580000
  69.4209408 141.4549408   7.9740000  68.8169408 141.4819408   8.7160000
  70.2109408 141.8929408   8.2920000  88.8549408 143.9129408  10.4620000
  88.1329408 143.2899408  10.3720000  88.5459408 144.5469408  11.1090000
  69.8059408 135.8759408  21.7940000  68.8959408 136.1509408  21.9020000
  69.7489408 134.9669408  21.5000000  67.9939408 141.3219408  14.6600000
  68.8919408 141.3319408  14.9910000  67.9779408 142.0019408  13.9870000
  85.4639408 145.1709408   8.5830000  84.5769408 145.4189408   8.3240000
  85.9009408 144.9499408   7.7600000  84.4759408 140.8279408  19.0240000
  85.3199408 141.0919408  18.6570000  84.7019408 140.2359408  19.7420000
  68.2409408 139.7249408  25.2630000  68.0479408 139.1849408  26.0300000
  69.1959408 139.7239408  25.2030000  72.9509408 121.3049408  12.5350000
  73.5739408 120.6049408  12.7320000  72.1069408 120.9639408  12.8300000
  89.8429408 146.8959408   8.9490000  89.2369408 146.1979408   8.6960000
  90.4319408 146.4839408   9.5810000  73.2739408 146.0209408   5.5640000
  73.0779408 145.8549408   6.4860000  72.5129408 145.6839408   5.0920000
  73.9679408 143.1959408  12.7510000  73.0609408 143.1179408  12.4530000
  74.4749408 143.3119408  11.9480000  67.9659408 143.2009408  24.6000000
  68.6309408 142.7009408  24.1270000  67.9549408 144.0549408  24.1660000
  88.8189408 148.9629408  19.5480000  89.3499408 148.7979408  20.3270000
  87.9169408 148.8389408  19.8420000  67.1999408 122.1849408  19.7970000
  67.7519408 121.4189408  19.6400000  66.4489408 121.8439408  20.2840000
  76.6659408 132.2829408   1.1970000  76.1439408 133.0379408   0.9240000
  76.2319408 131.9649408   1.9890000  71.4439408 135.8639408  23.9440000
  72.0879408 136.3889408  23.4680000  70.7859408 135.6379408  23.2870000
  74.5009408 132.8519408   5.8720000  74.3729408 132.6739408   6.8040000
  73.6179408 132.8409408   5.5020000  70.8959408 139.7499408   9.9370000
  70.1039408 139.8069408  10.4710000  71.6099408 139.9329408  10.5480000
  79.0259408 134.6979408   5.6060000  79.1789408 135.5409408   6.0320000
  78.8219408 134.0999408   6.3250000  66.7689408 148.4729408  14.2330000
  67.3599408 149.2059408  14.4070000  65.9639408 148.6979408  14.6990000
  69.7699408 142.6009408  26.6800000  69.2829408 142.6389408  25.8560000
  69.7329408 143.4939408  27.0220000  87.3529408 120.3099408  12.8330000
  87.5099408 119.6729408  13.5300000  87.9369408 121.0399408  13.0390000
  72.1129408 138.3489408   7.7370000  71.7449408 138.5769408   8.5910000
  71.5649408 138.8179408   7.1070000  84.6629408 139.5749408  12.4850000
  84.9049408 138.8659408  13.0800000  84.1909408 139.1409408  11.7740000
  61.4539408 149.7109408  15.8930000  61.4329408 150.6619408  16.0040000
  62.2849408 149.5399408  15.4500000  66.8329408 140.5419408  17.8900000
  67.4509408 139.8449408  17.6710000  66.2749408 140.1639408  18.5700000
  85.2199408 134.8659408   1.3530000  85.3179408 134.0859408   0.8060000
  84.4369408 135.3009408   1.0120000  78.8679408 147.6099408   3.3490000
  79.7269408 147.3279408   3.6620000  78.2529408 147.2769408   4.0020000
  68.3579408 124.1779408   1.8600000  68.4489408 124.8209408   2.5630000
  67.5369408 123.7239408   2.0540000  71.2019408 148.7629408   3.4690000
  71.2119408 149.5939408   3.9450000  71.6049408 148.9659408   2.6240000
  66.1329408 143.5059408  20.1000000  66.3269408 143.2889408  19.1880000
  66.9599408 143.8419408  20.4480000  70.2109408 148.4339408  11.9620000
  71.0079408 148.2959408  11.4500000  70.5229408 148.6039408  12.8510000
  77.3879408 142.3639408  27.4260000  77.6389408 142.8729408  28.1970000
  78.1209408 142.4709408  26.8190000  61.6809408 148.4499408   7.5820000
  62.3499408 147.9409408   7.1260000  60.8959408 147.9039408   7.5440000
  85.9239408 142.7609408  13.2040000  85.7279408 142.7439408  12.2670000
  86.0819408 141.8459408  13.4340000  79.3099408 146.6769408  14.0320000
  79.6109408 146.8749408  14.9190000  79.3619408 145.7229408  13.9680000
  63.3539408 144.7089408   9.0660000  63.7559408 145.5449408   9.3010000
  62.5179408 144.9489408   8.6650000  61.4129408 146.7549408   0.3960000
  62.1889408 147.0679408  -0.0690000  61.2349408 145.8959408   0.0140000
  89.6089408 147.8679408  15.3230000  90.1049408 147.1339408  14.9590000
  90.2649408 148.5469408  15.4810000  82.3659408 134.6299408   8.6880000
  81.7399408 134.6659408   9.4110000  83.1379408 135.0919408   9.0160000
  61.5119408 139.0599408  13.6060000  60.8219408 139.4449408  13.0660000
  62.0049408 138.5029408  13.0030000  63.9449408 146.8669408  18.1460000
  63.7629408 146.8199408  17.2080000  64.4529408 147.6719408  18.2510000
  73.2799408 142.0519408  15.6120000  72.3279408 141.9589408  15.6370000
  73.5199408 141.8259408  14.7140000  72.9559408 141.3659408   6.3640000
  73.4859408 141.8059408   5.6990000  72.4029408 140.7609408   5.8690000
  63.4409408 126.1809408   1.9050000  64.0029408 126.8479408   1.5100000
  63.9759408 125.7989408   2.6010000  77.0119408 143.5979408   0.0990000
  77.4669408 144.3679408   0.4400000  76.1409408 143.9179408  -0.1370000
  67.1949408 142.4749408  28.1130000  66.6079408 142.3649408  27.3650000
  68.0739408 142.3999408  27.7400000  60.1369408 123.5589408   5.8370000
  59.9919408 122.6449408   5.5950000  60.0729408 123.5669408   6.7920000
  75.3399408 140.8529408  28.1340000  74.7079408 141.5289408  27.8920000
  76.1799408 141.1839408  27.8140000  86.3759408 143.1479408  22.1470000
  85.9069408 143.8409408  21.6830000  87.2419408 143.1299408  21.7400000
  68.6959408 124.9359408  26.2190000  68.5659408 124.8349408  27.1620000
  67.9669408 125.4869408  25.9330000  72.6159408 142.0489408  24.5270000
  72.7129408 141.7699408  25.4380000  73.1399408 141.4229408  24.0270000
  64.7479408 146.4299408   2.0810000  64.8309408 145.7089408   2.7050000
  63.9279408 146.8609408   2.3190000  69.2759408 146.4629408  14.7030000
  69.7309408 146.2569408  15.5190000  69.1089408 147.4049408  14.7520000
  83.3719408 149.3539408  16.9710000  83.3079408 148.3989408  16.9860000
  82.9949408 149.6059408  16.1290000  76.2559408 143.4489408  22.4580000
  75.9049408 143.5529408  21.5740000  75.4959408 143.5559408  23.0320000
  66.9949408 135.9949408  20.7340000  66.4209408 135.7369408  21.4560000
  66.9939408 136.9519408  20.7580000  76.4109408 147.9309408  16.0400000
  76.7929408 148.4529408  16.7440000  76.9819408 148.0879408  15.2870000
  74.1419408 144.1589408  24.0840000  73.6309408 143.3779408  24.2940000
  73.5819408 144.6599408  23.4910000  73.5379408 136.9969408  22.3460000
  74.1009408 136.3869408  22.8230000  73.4289408 136.5979408  21.4830000
  73.4829408 139.4799408  23.5240000  73.6019408 138.6709408  23.0260000
  74.1959408 139.4769408  24.1620000  65.5179408 140.8639408   0.6340000
  64.6129408 140.9029408   0.3240000  65.8689408 141.7369408   0.4600000
  63.9199408 143.7329408  27.9040000  63.7749408 142.7969408  27.7640000
  64.6069408 143.7729408  28.5690000  83.3409408 145.3679408  26.2690000
  83.8739408 145.7849408  25.5910000  82.6439408 145.9989408  26.4470000
  81.0999408 147.1969408  26.2780000  80.7519408 147.3389408  25.3980000
  81.3499408 148.0699408  26.5810000  74.6979408 145.7839408  19.6430000
  74.8279408 145.7939408  18.6940000  74.6369408 144.8559408  19.8670000
  71.6579408 149.4879408  25.1230000  71.5199408 150.2759408  25.6490000
  72.5939408 149.3049408  25.2060000  65.6269408 145.5319408  22.0670000
  66.1349408 145.9269408  21.3580000  65.2669408 144.7309408  21.6870000
  68.4599408 122.5539408  24.9290000  68.0919408 121.8119408  25.4080000
  68.4689408 123.2689408  25.5650000  63.5699408 140.9729408  27.9310000
  62.6959408 140.8599408  27.5580000  64.1639408 140.6609408  27.2500000
  84.5209408 137.0009408  22.3890000  85.1209408 136.3069408  22.6620000
  83.6929408 136.7869408  22.8180000  71.6979408 140.0789408  29.7730000
  70.8099408 139.8989408  29.4640000  72.0089408 139.2409408  30.1130000
  70.6369408 141.0749408  15.7480000  71.0509408 140.3259408  16.1760000
  70.8889408 140.9959408  14.8280000  67.8009408 137.6069408  26.9660000
  67.9509408 138.0929408  27.7770000  68.6709408 137.3129408  26.6970000
  74.6939408 147.6009408  29.4540000  73.7959408 147.3609408  29.6810000
  74.6029408 148.1929408  28.7070000  74.6019408 148.8039408  23.5100000
  75.1489408 148.3629408  24.1610000  74.6489408 149.7299408  23.7450000
  68.0119408 145.6129408  29.1090000  67.3469408 145.9979408  29.6800000
  67.5689408 145.4959408  28.2690000  77.2359408 145.8399408  24.2300000
  77.9919408 145.7569408  23.6490000  76.6439408 145.1399408  23.9550000
  76.3829408 145.0279408  16.5230000  75.9809408 144.9789408  15.6560000
  76.6939408 145.9299408  16.5930000  59.8979408 145.6919408  22.9550000
  59.7849408 144.8959408  23.4740000  60.8379408 145.7319408  22.7780000
  68.7329408 145.2859408   2.7840000  69.4529408 145.3559408   2.1580000
  68.2929408 146.1349408   2.7390000  86.7709408 123.6649408  22.7270000
  86.7729408 122.8369408  23.2070000  87.3549408 124.2339408  23.2270000
  65.4859408 137.0279408  25.4590000  65.3769408 136.1209408  25.7470000
  66.3439408 137.2849408  25.7970000  69.9189408 123.5539408  21.8240000
  69.1149408 123.4609408  22.3350000  70.5089408 122.8899408  22.1800000
  71.3379408 148.9519408  27.8980000  70.3879408 148.9459408  27.7800000
  71.6909408 148.7969408  27.0220000  68.4839408 132.6569408  12.7750000
  68.7579408 133.2109408  12.0450000  69.2489408 132.1129408  12.9640000
  64.8689408 142.0059408   4.4930000  65.4839408 142.3369408   3.8380000
  65.3879408 141.9349408   5.2950000  61.1839408 143.8679408   2.2820000
  61.7039408 143.3719408   1.6500000  61.6219408 143.7219408   3.1200000
  61.2759408 140.9209408  22.3260000  61.5259408 140.2529408  21.6880000
  61.9619408 141.5849408  22.2600000  67.4129408 146.2019408  20.0570000
  67.4249408 146.6489408  19.2110000  68.2419408 146.4469408  20.4690000
  72.1609408 141.0939408  27.1720000  71.3539408 141.5889408  27.0280000
  72.4389408 141.3399408  28.0540000  81.6459408 145.8579408  19.2480000
  81.8839408 145.4889408  18.3980000  81.1379408 145.1669408  19.6750000
  61.9099408 146.0429408  26.4380000  61.0299408 146.3809408  26.2760000
  61.8099408 145.4669408  27.1960000  86.5009408 143.4099408   3.8900000
  87.2679408 143.2959408   3.3290000  86.1529408 144.2679408   3.6490000
  72.1069408 148.3369408  22.1520000  72.8629408 148.3479408  22.7390000
  71.9139408 149.2609408  21.9920000  66.9049408 149.6589408  24.4020000
  67.4049408 149.1249408  25.0190000  67.5369408 149.8999408  23.7250000
  68.8949408 141.6709408  19.8570000  68.2309408 141.5909408  19.1720000
  68.9859408 140.7849408  20.2080000  79.3409408 139.3989408  20.3370000
  79.0289408 139.1119408  19.4790000  78.5439408 139.5879408  20.8320000
  77.1019408 135.7249408  25.9070000  77.7749408 136.4049408  25.8650000
  76.2939408 136.1989408  26.1020000  70.1359408 142.0139408  23.1660000
  70.2959408 142.4989408  22.3560000  70.9959408 141.9489408  23.5810000
  78.4869408 128.0279408   1.6070000  79.1999408 128.3819408   2.1380000
  78.0509408 128.7999408   1.2450000  75.1319408 137.2609408  26.3960000
  75.2409408 137.6919408  27.2440000  74.5449408 136.5269408  26.5740000
  67.2789408 146.4109408  26.2950000  66.3539408 146.2849408  26.0820000
  67.7199408 146.4259408  25.4460000  74.4529408 140.9099408   3.7780000
  74.3679408 140.7669408   2.8350000  75.0229408 140.2019408   4.0770000
  67.1399408 147.5469408  17.6840000  66.8289408 147.2759408  16.8200000
  66.5409408 148.2459408  17.9460000  85.0939408 123.0129408  25.4040000
  84.7599408 122.6939408  24.5660000  85.6369408 122.2969408  25.7340000
  75.7979408 148.7229408   3.2530000  75.6619408 147.7969408   3.0530000
  75.1299408 149.1799408   2.7420000  69.0859408 121.1759408   1.1750000
  68.4019408 120.5059408   1.1510000  68.6729408 121.9539408   0.8020000
  68.0329408 149.1679408  10.5370000  68.6119408 148.8459408  11.2270000
  67.5109408 149.8489408  10.9610000  72.8329408 136.8609408  13.8650000
  72.4649408 135.9809408  13.9370000  72.1939408 137.3459408  13.3420000
  68.4229408 148.5869408  27.7970000  68.0969408 148.0029408  27.1120000
  68.0209408 148.2599408  28.6020000  73.1219408 135.2349408  26.3590000
  72.9999408 134.2859408  26.3360000  73.2029408 135.4879408  25.4390000
  65.5019408 120.1759408  20.8970000  65.1519408 120.8029408  21.5300000
  65.3639408 119.3209408  21.3060000  74.6709408 127.7959408   5.3550000
  75.3629408 127.6749408   4.7050000  74.3999408 126.9069408   5.5840000
  72.2429408 126.3459408   7.8770000  73.0639408 125.9189408   7.6340000
  71.5769408 125.9019408   7.3520000  84.9609408 135.1169408   6.4150000
  84.0719408 135.3439408   6.1410000  85.4919408 135.8699408   6.1570000
  79.3769408 127.5459408  12.7920000  79.5639408 127.9789408  11.9590000
  78.9799408 128.2279408  13.3340000  89.9389408 132.9329408  20.1570000
  89.2409408 133.5489408  19.9330000  89.5489408 132.0699408  20.0180000
  83.4369408 128.0999408  14.6000000  83.0629408 128.4679408  13.7990000
  83.0709408 127.2169408  14.6520000  87.4789408 123.9939408  10.6530000
  87.3369408 124.2939408   9.7560000  87.7139408 123.0699408  10.5640000
  83.8419408 127.9109408  11.1330000  83.2649408 128.4849408  10.6300000
  84.5029408 127.6239408  10.5030000  84.1399408 121.3499408  10.9420000
  83.2239408 121.4689408  11.1920000  84.1099408 120.7419408  10.2040000
  82.8249408 141.8459408  29.9020000  83.1099408 141.1609408  30.5080000
  83.3979408 141.7459408  29.1420000  60.0609408 126.7279408  17.5830000
  60.7789408 127.3319408  17.7720000  59.7179408 127.0209408  16.7390000
  79.3879408 132.0239408   1.7080000  78.4449408 132.1189408   1.5730000
  79.5609408 131.0969408   1.5410000  78.6229408 124.8899408  12.5080000
  79.1929408 124.4829408  11.8550000  78.9969408 125.7609408  12.6440000
  88.2209408 143.3229408  14.8680000  87.5639408 143.4529408  14.1850000
  89.0359408 143.1649408  14.3900000  87.7609408 122.7849408   3.9490000
  88.2159408 122.0179408   3.6010000  87.0409408 122.9349408   3.3370000
  75.8699408 127.0169408   0.6600000  75.2029408 126.8519408   1.3270000
  76.4569408 127.6569408   1.0610000  79.5339408 137.2399408  26.6460000
  80.2919408 136.8729408  26.1910000  79.5379408 136.8119408  27.5020000
  85.9399408 125.4359408  14.7680000  86.1589408 125.8389408  13.9280000
  85.7629408 124.5199408  14.5560000  85.4509408 126.9699408   5.4990000
  84.8859408 126.2069408   5.3780000  85.7639408 127.1789408   4.6180000
  60.4629408 142.8909408  13.2580000  60.2129408 141.9829408  13.0880000
  61.3599408 142.8359408  13.5870000  74.7979408 131.2589408  20.4950000
  74.1209408 131.7319408  20.0110000  75.3779408 131.9449408  20.8280000
  78.4659408 143.8039408   9.1880000  78.8379408 144.6159408   8.8460000
  78.9149408 143.1109408   8.7040000  76.7079408 127.0059408   3.8860000
  77.1969408 127.5149408   3.2390000  76.7849408 126.0999408   3.5860000
  65.6159408 123.9159408  17.9620000  66.1299408 123.4149408  18.5940000
  65.1099408 123.2559408  17.4870000  85.2969408 125.6169408  19.7390000
  86.1719408 125.2819408  19.5430000  84.9219408 125.8239408  18.8830000
  70.5079408 127.1349408  20.9140000  71.3479408 126.7929408  20.6060000
  70.6289408 127.2549408  21.8560000  65.4309408 128.9249408  13.3460000
  64.5449408 128.8439408  13.6980000  65.4069408 129.7229408  12.8170000
  89.5329408 120.6999408   3.3760000  90.1959408 120.7629408   2.6890000
  89.1429408 119.8339408   3.2540000  79.1209408 131.3209408  13.8360000
  78.7309408 131.3989408  12.9650000  78.7629408 132.0599408  14.3270000
  83.4509408 136.6139408  17.9200000  83.0099408 137.2459408  17.3520000
  82.8429408 136.4799408  18.6470000  61.2429408 145.3819408  11.0890000
  61.8839408 144.7989408  10.6820000  60.4409408 144.8619408  11.1370000
  60.5589408 123.4369408   2.1060000  60.9039408 123.9419408   1.3700000
  59.6199408 123.3699408   1.9320000  85.4529408 143.0009408   6.3470000
  86.1639408 142.5919408   6.8410000  85.8259408 143.1649408   5.4810000
  79.8289408 132.1619408   4.8400000  80.2879408 132.3219408   5.6640000
  79.5549408 133.0299408   4.5450000  78.0169408 127.0069408  27.2190000
  77.3259408 126.5609408  27.7080000  78.0999408 126.5049408  26.4080000
  85.5609408 131.1319408  15.4750000  85.1189408 130.5969408  16.1340000
  84.8589408 131.6419408  15.0700000  61.6959408 134.5629408   5.6540000
  61.0739408 134.5129408   4.9270000  61.7619408 133.6639408   5.9750000
  86.7429408 123.6139408  17.8620000  86.4659408 124.0829408  17.0750000
  86.0469408 122.9769408  18.0200000  81.6259408 139.4869408   1.2030000
  82.4039408 139.0829408   1.5860000  81.3859408 140.1789408   1.8190000
  79.8959408 127.7829408  29.2340000  79.4559408 127.5179408  28.4260000
  79.2739408 127.5689408  29.9280000  89.2179408 143.7659408   5.8380000
  89.3659408 144.3189408   5.0710000  89.4309408 142.8809408   5.5410000
  81.2669408 120.7559408   8.5830000  81.3999408 121.0999408   9.4660000
  80.5919408 120.0849408   8.6870000  84.1839408 124.4299408  29.2750000
  83.9199408 125.0219408  28.5710000  83.4349408 124.4179408  29.8720000
  87.0209408 120.6149408  23.3560000  86.1119408 120.3729408  23.1770000
  87.4589408 119.7839408  23.5400000  87.0549408 140.3509408  13.5330000
  86.2059408 140.0659408  13.1960000  87.4329408 139.5649408  13.9270000
  83.3629408 125.0449408  11.8150000  83.7649408 125.8809408  11.5770000
  84.1039408 124.4649408  11.9930000  84.9759408 121.0289408  20.1130000
  84.6729408 121.3969408  19.2830000  84.4759408 121.4979408  20.7810000
  82.5319408 143.9129408  16.2690000  83.3199408 143.8259408  16.8050000
  82.8589408 144.0669408  15.3830000  86.3219408 127.4929408  23.9420000
  86.3019408 126.7529408  24.5480000  87.1049408 127.9849408  24.1900000
  60.1739408 131.8329408  11.6060000  60.4409408 131.6049408  12.4960000
  60.8999408 132.3529408  11.2630000  85.7369408 139.1459408   8.1800000
  84.8499408 139.1279408   8.5390000  86.1869408 138.4239408   8.6170000
  76.6539408 129.5689408   7.1000000  76.2859408 129.1019408   6.3490000
  77.5579408 129.2609408   7.1550000  78.3429408 145.7469408   6.0430000
  78.8659408 144.9999408   5.7510000  77.5969408 145.7659408   5.4440000
  64.7929408 145.8129408   5.2480000  64.3529408 146.6369408   5.4600000
  64.0799408 145.1949408   5.0880000  83.2419408 143.1659408  10.4920000
  82.9709408 143.7249408   9.7630000  82.5509408 142.5069408  10.5570000
  85.7379408 146.5139408  16.0000000  85.5399408 145.6189408  15.7260000
  84.8859408 146.8929408  16.2160000  60.0309408 126.3349408   7.2890000
  59.4529408 125.8939408   6.6650000  60.7089408 126.7369408   6.7450000
  65.4109408 121.6389408  14.1010000  66.3529408 121.5459408  13.9540000
  65.1199408 122.2449408  13.4200000  80.9789408 131.3509408  28.1040000
  81.4849408 130.7389408  28.6380000  81.4719408 131.4199408  27.2860000
  72.0409408 123.7889408   0.3090000  71.4489408 124.5119408   0.1020000
  72.7159408 123.8299408  -0.3690000  84.4599408 122.0869408  17.5660000
  84.6979408 122.1839408  16.6440000  83.9199408 121.2969408  17.5930000
  68.5499408 124.3989408  19.4280000  69.1569408 124.0959408  20.1040000
  67.8149408 123.7869408  19.4750000  87.6739408 127.2299408  28.4930000
  88.1929408 128.0039408  28.2730000  87.5139408 126.7999408  27.6530000
  81.2339408 121.7299408  11.0500000  81.0569408 121.7479408  11.9900000
  81.0979408 122.6329408  10.7630000  82.1169408 126.2239408  16.4610000
  81.5759408 126.8179408  16.9810000  81.6809408 126.1839408  15.6100000
  77.0459408 129.7769408  30.0950000  76.9329408 130.7139408  30.2500000
  77.3599408 129.7189408  29.1920000  87.9949408 121.5439408   9.2960000
  87.6689408 120.7739408   9.7610000  87.5859408 121.4939408   8.4320000
  64.1849408 139.2609408  15.5620000  63.2749408 139.4589408  15.3410000
  64.2369408 139.3929408  16.5080000  81.5719408 136.0879408  19.4610000
  81.2589408 136.5549408  20.2350000  82.0279408 135.3219408  19.8100000
  84.5889408 132.8039408  18.0590000  85.3309408 132.2919408  17.7360000
  84.9889408 133.5189408  18.5550000  62.6959408 124.0899408  21.8710000
  62.3059408 123.5869408  21.1560000  62.9999408 124.8979408  21.4560000
  89.8669408 142.4849408  23.7190000  90.5199408 142.0109408  23.2050000
  89.1229408 142.5889408  23.1250000  82.9719408 149.7709408   6.6800000
  82.3179408 150.1079408   7.2920000  83.6439408 149.3789408   7.2390000
  90.0319408 129.3559408   7.3470000  89.0959408 129.2539408   7.5190000
  90.1719408 128.9109408   6.5120000  72.1399408 127.4559408  12.2220000
  73.0799408 127.4309408  12.0430000  71.9669408 126.6499408  12.7080000
  82.2569408 132.3619408  11.4830000  81.7519408 133.1539408  11.2990000
  82.2079408 131.8529408  10.6740000  87.9939408 128.9349408  18.7130000
  88.8849408 128.7869408  19.0320000  87.4419408 128.4079408  19.2910000
  85.9349408 141.0989408  28.9360000  85.4299408 141.0179408  28.1280000
  86.4369408 141.9069408  28.8260000  62.6369408 128.9269408   8.6340000
  63.0599408 129.1289408   9.4690000  61.7709408 129.3279408   8.7010000
  61.9669408 128.2519408  18.4270000  62.8179408 128.6559408  18.5950000
  61.4089408 128.5619408  19.1400000  87.5039408 125.9579408  12.6760000
  87.6349408 125.1329408  12.2080000  87.4329408 126.6169408  11.9850000
  66.0659408 123.5049408   3.3350000  65.7129408 124.3689408   3.5490000
  65.3759408 123.0859408   2.8200000  80.1629408 123.2489408   7.1740000
  80.7889408 122.6829408   7.6270000  79.4289408 123.3299408   7.7820000
  76.8479408 149.6619408  10.6200000  76.3209408 149.0759408  11.1630000
  76.2789408 149.8849408   9.8840000  65.8869408 130.2809408   5.3640000
  65.6359408 130.8369408   6.1020000  65.8729408 130.8659408   4.6070000
  82.0509408 147.8479408  21.3780000  82.2919408 147.3129408  20.6220000
  82.4079408 148.7149408  21.1820000  86.0049408 148.4509408  20.5770000
  85.3879408 147.8689408  20.1320000  85.6789408 149.3319408  20.3920000
  75.9519408 135.9449408   0.6750000  75.0699408 135.6069408   0.8280000
  76.3909408 135.2529408   0.1800000  82.1649408 127.7679408   8.6350000
  83.0789408 127.4839408   8.6030000  82.1279408 128.5239408   8.0490000
  84.3869408 130.8979408   7.2380000  84.6949408 131.3449408   8.0260000
  85.0989408 131.0059408   6.6070000  80.4669408 147.5979408  16.5020000
  80.0149408 148.4079408  16.7400000  79.9129408 146.9009408  16.8520000
  77.1799408 144.4859408  11.5940000  77.1339408 144.0919408  10.7230000
  77.8769408 145.1389408  11.5260000  87.1109408 127.9229408  10.7590000
  86.6699408 128.6599408  11.1820000  87.2859408 128.2279408   9.8680000
  84.4309408 128.2329408   0.1660000  84.9999408 128.8329408  -0.3160000
  84.9499408 127.9689408   0.9260000  87.6649408 137.8339408  20.4340000
  87.0099408 137.9209408  21.1270000  87.7929408 138.7259408  20.1110000
  80.4459408 125.7249408   5.9510000  80.6899408 124.9389408   6.4390000
  81.2809408 126.0999408   5.6680000  64.0989408 137.2339408  20.9040000
  63.5579408 137.6299408  20.2210000  64.7849408 137.8809408  21.0720000
  83.0409408 145.6989408   7.7480000  82.2169408 146.1149408   7.4950000
  83.0589408 144.8799408   7.2530000  75.0709408 123.1099408  11.9730000
  75.9309408 122.7019408  11.8700000  74.5769408 122.4959408  12.5170000
  61.2549408 126.8109408  14.1630000  60.3669408 126.7379408  14.5100000
  61.5479408 127.6809408  14.4330000  61.2039408 138.3319408   8.1590000
  61.7869408 138.4599408   8.9080000  60.4139408 137.9419408   8.5330000
  70.8509408 138.0429408  20.5640000  71.5169408 137.8769408  19.8970000
  70.6929408 137.1879408  20.9640000  85.3289408 133.5029408  11.5810000
  85.0329408 134.2309408  12.1270000  86.1189408 133.1829408  12.0170000
  87.1119408 147.8559408  14.3000000  86.6299408 147.3489408  14.9530000
  88.0099408 147.8809408  14.6300000  84.7879408 122.1149408   5.8990000
  84.1839408 121.3719408   5.9120000  85.6579408 121.7159408   5.9040000
  79.4179408 135.1679408  16.0930000  80.2329408 134.6729408  16.0060000
  79.6999408 136.0539408  16.3210000  87.7659408 133.5989408   3.8470000
  87.7389408 133.8419408   4.7720000  87.9009408 134.4269408   3.3850000
  65.1689408 134.5189408  16.3780000  65.8409408 134.4369408  17.0540000
  64.4199408 134.9079408  16.8290000  82.8469408 134.3839408  29.2860000
  83.0729408 135.2939408  29.4810000  82.3399408 134.4319408  28.4760000
  84.5049408 123.7859408   8.3370000  84.6659408 123.1259408   7.6630000
  85.3689408 123.9629408   8.7110000  87.8919408 135.9599408   1.8140000
  87.0629408 135.4949408   1.6950000  88.2699408 136.0039408   0.9360000
  81.4209408 125.9589408  13.7260000  80.7449408 126.4539408  13.2630000
  82.0389408 125.6999408  13.0420000  64.4059408 130.8699408   1.0480000
  63.6999408 131.4429408   1.3470000  65.1239408 131.0339408   1.6600000
  77.9489408 137.1749408  11.2960000  77.9059408 136.2389408  11.0990000
  78.8179408 137.2979408  11.6800000  85.4809408 131.9639408   9.4060000
  85.1199408 132.5119408  10.1030000  86.2799408 131.5939408   9.7810000
  87.2379408 124.9699408   8.0610000  87.3909408 125.8909408   8.2740000
  87.5609408 124.8749408   7.1650000  84.1389408 128.9709408  24.3760000
  83.4629408 128.4299408  23.9690000  84.9209408 128.4189408  24.3760000
  76.7859408 138.4209408   1.6810000  76.7219408 137.5299408   1.3370000
  77.4129408 138.8559408   1.1040000  82.8489408 133.5719408  19.9600000
  83.5609408 133.2709408  19.3950000  82.1069408 133.0129408  19.7290000
  83.2589408 120.4689408  14.2250000  83.7039408 119.7619408  13.7580000
  83.9489408 121.1049408  14.4120000  68.5139408 138.9249408   4.6940000
  68.4449408 137.9949408   4.9100000  67.8739408 139.0569408   3.9950000
  60.9149408 132.1979408   3.5130000  60.7669408 132.8599408   2.8380000
  60.2449408 131.5339408   3.3490000  76.2619408 125.6629408  11.8050000
  77.1559408 125.3529408  11.9450000  75.7269408 124.8699408  11.8260000
  85.2609408 122.5219408  15.1500000  86.1599408 122.1979408  15.2140000
  85.1129408 122.6349408  14.2110000  86.0369408 129.7699408  12.4210000
  86.3529408 129.1019408  13.0300000  85.0999408 129.8379408  12.6050000
  83.0209408 128.4339408   3.5050000  83.2149408 129.3699408   3.4500000
  83.4379408 128.1499408   4.3190000  78.3969408 121.7669408   4.5070000
  78.1719408 121.0319408   5.0770000  79.3529408 121.8069408   4.5340000
  87.9889408 129.2129408  25.4190000  88.5799408 129.2639408  26.1700000
  87.4759408 130.0199408  25.4620000  89.4079408 140.4649408  12.4830000
  88.5159408 140.4729408  12.8300000  89.2959408 140.4509408  11.5330000
  79.9099408 128.3669408  10.0660000  79.9099408 129.2509408   9.6990000
  80.6139408 127.9149408   9.6030000  82.6919408 131.3699408  26.1520000
  82.7639408 130.5559408  25.6530000  83.5839408 131.5479408  26.4510000
  82.3429408 137.8229408  13.7280000  82.4789408 138.5569408  14.3260000
  81.4959408 137.9999408  13.3180000  78.5539408 138.9259408  24.6820000
  78.7939408 138.2999408  25.3660000  79.3529408 139.4279408  24.5250000
  60.9789408 131.7839408   6.4660000  60.8059408 131.5689408   5.5490000
  60.8379408 130.9619408   6.9360000  78.5449408 126.2349408   8.9460000
  78.6869408 126.3049408   8.0020000  78.8589408 127.0669408   9.2990000
  77.5829408 122.1169408  11.6990000  77.5359408 121.9249408  12.6360000
  77.4419408 121.2719408  11.2740000  83.0879408 126.0449408   2.2860000
  83.1179408 126.9629408   2.5550000  82.5769408 126.0479408   1.4770000
  79.4299408 149.0179408   0.8690000  80.3869408 149.0099408   0.8630000
  79.1899408 148.4979408   1.6360000  83.0929408 124.5809408  26.6170000
  83.7929408 124.1529408  26.1250000  82.4559408 124.8409408  25.9520000
  89.4029408 141.3029408  16.8030000  89.1189408 142.1149408  16.3830000
  90.2919408 141.4879408  17.1050000  89.9999408 123.3119408   8.7350000
  89.2879408 122.6869408   8.8720000  89.6239408 124.1599408   8.9690000
  67.9229408 120.9289408   7.0610000  68.3859408 121.4039408   7.7510000
  67.6119408 121.6119408   6.4670000  86.0629408 126.2019408   2.8730000
  86.7759408 126.4759408   2.2960000  85.4759408 125.7009408   2.3070000
  85.4119408 140.8149408   1.5320000  85.4999408 140.9999408   0.5970000
  86.2239408 140.3649408   1.7650000  88.3659408 125.4669408  19.3010000
  88.8039408 125.9929408  18.6320000  88.0599408 124.6899408  18.8330000
  80.9419408 124.3839408  17.7550000  80.5819408 123.9059408  17.0080000
  81.5239408 125.0359408  17.3640000  79.5519408 133.4549408  29.3200000
  79.6209408 132.9329408  30.1200000  79.9389408 132.9039408  28.6400000
  89.4049408 129.7769408   1.2160000  89.7829408 129.6169408   0.3520000
  88.8879408 128.9919408   1.4010000  83.8139408 136.7889408  29.7140000
  83.7769408 137.3819408  30.4640000  84.6549408 136.9789408  29.2980000
  62.6029408 136.3849408  27.6050000  62.3689408 136.0419408  26.7430000
  63.5349408 136.1849408  27.6980000  81.4199408 133.2069408  24.2540000
  81.6209408 132.3409408  24.6100000  81.2789408 133.0559408  23.3200000
  84.3839408 136.4509408  26.5200000  84.4989408 137.3369408  26.1780000
  84.0379408 136.5779408  27.4040000  89.1759408 130.3779408  22.4850000
  88.2839408 130.5879408  22.2080000  89.0939408 130.1619408  23.4140000
  87.5159408 131.6489408  18.8270000  87.5849408 130.6959408  18.7670000
  87.6049408 131.8379408  19.7610000  88.1189408 133.0759408  23.9840000
  88.7619408 132.6759408  24.5710000  87.4529408 133.4369408  24.5690000
  60.9759408 133.9229408  26.7960000  61.2779408 134.0099408  27.7000000
  61.7439408 133.6149408  26.3150000  81.7639408 133.3609408   2.3840000
  81.7739408 133.7069408   1.4920000  80.9559408 132.8499408   2.4340000
  60.6829408 124.4809408  26.5800000  60.8219408 124.3349408  25.6450000
  60.8769408 125.4089408  26.7100000  88.0309408 145.7699408   0.2010000
  87.6519408 146.3839408  -0.4290000  88.7909408 146.2309408   0.5560000
  62.9169408 130.2559408  22.9200000  62.3259408 130.8239408  22.4250000
  63.4999408 130.8599408  23.3800000  81.1939408 124.9999408  24.4080000
  80.3499408 125.2639408  24.7730000  81.2559408 124.0639408  24.5980000
  86.5439408 125.5789408  25.9390000  85.8209408 124.9659408  25.8060000
  87.3229408 125.0939408  25.6660000  88.7599408 148.1839408   3.0480000
  88.8759408 147.2849408   3.3560000  89.4779408 148.3219408   2.4310000
  62.6489408 127.0719408  23.3300000  62.9159408 127.8839408  22.8980000
  62.1039408 126.6239408  22.6820000  82.4329408 144.4709408   0.8190000
  81.6569408 144.3989408   1.3750000  82.5059408 143.6149408   0.3970000
  87.0089408 127.7539408  20.9100000  87.1639408 127.5669408  21.8360000
  86.1749408 127.3249408  20.7160000  63.2349408 138.6979408  24.7910000
  62.6099408 137.9739408  24.8150000  64.0829408 138.2909408  24.9680000
  65.1829408 135.2449408  28.7310000  65.2499408 134.6459408  27.9880000
  66.0909408 135.4169408  28.9820000  79.5569408 139.2589408   4.7920000
  79.8279408 138.5009408   4.2750000  79.5719408 139.9889408   4.1730000
  86.9399408 130.5709408   5.5480000  87.2969408 131.4359408   5.7460000
  87.5429408 130.2049408   4.9000000  82.1869408 127.3489408  23.2340000
  82.6329408 127.2299408  22.3960000  81.9849408 126.4599408  23.5270000
  83.0549408 146.8219408  15.9560000  82.1179408 146.8199408  16.1500000
  83.1779408 146.0819408  15.3610000  86.0829408 134.9759408  22.9120000
  86.8299408 134.5689408  22.4730000  86.1679408 134.7089408  23.8270000
  61.7139408 124.7479408   4.2270000  61.3929408 124.3309408   3.4270000
  61.0859408 124.4889408   4.9010000  86.7119408 148.8939408   1.2240000
  87.5319408 148.5429408   1.5710000  86.3319408 149.3829408   1.9540000
  84.2559408 143.5429408  18.3680000  84.2759408 142.7569408  18.9150000
  85.1489408 143.6239408  18.0320000  87.4089408 148.0439408  28.3580000
  86.8659408 148.5749408  28.9420000  88.0689408 148.6529408  28.0260000
  66.1619408 141.5309408  25.3790000  66.6229408 142.3089408  25.0660000
  66.8009408 140.8229408  25.2930000  84.1759408 138.5089408   1.7660000
  84.5339408 139.3739408   1.5650000  84.8279408 138.1069408   2.3410000
  85.2449408 135.1359408  19.2390000  84.6809408 135.3399408  19.9860000
  85.0279408 135.8009408  18.5860000  87.8889408 122.9389408   0.7890000
  87.1389408 122.3659408   0.9500000  87.5709408 123.8159408   1.0000000
  77.5889408 125.9449408  21.8650000  77.9269408 125.0509408  21.9150000
  78.2399408 126.4199408  21.3480000  89.2179408 131.7099408  26.2810000
  89.3859408 131.1539408  27.0420000  89.5759408 132.5639408  26.5240000
  80.0679408 126.6019408  20.6770000  80.4109408 125.7399408  20.4420000
  80.8469408 127.1369408  20.8290000  89.4139408 123.1659408  16.0720000
  89.2369408 122.3849408  16.5970000  88.9069408 123.8589408  16.4960000
  86.1419408 132.3979408  27.6270000  85.4329408 132.2329408  28.2480000
  86.9029408 132.5879408  28.1750000  77.8799408 127.6249408  24.1220000
  77.7579408 126.6759408  24.0920000  77.0159408 127.9709408  24.3480000
  81.5639408 135.6829408  25.4200000  82.2419408 135.5029408  26.0710000
  81.3869408 134.8329408  25.0160000  89.8499408 122.5939408  28.7080000
  89.3119408 122.9239408  29.4270000  89.7199408 123.2259408  28.0010000
  84.0009408 124.7069408   5.0710000  83.8849408 124.5229408   4.1390000
  84.2479408 123.8649408   5.4530000  88.6979408 124.9809408  23.9730000
  89.2289408 125.6649408  24.3820000  89.2709408 124.2149408  23.9480000
  62.5169408 123.7909408  28.9940000  62.3399408 124.7299408  29.0370000
  62.0049408 123.4829408  28.2460000  69.8899408 131.8059408  17.1790000
  70.2009408 131.2239408  17.8720000  70.1229408 131.3559408  16.3660000
  62.2539408 135.9619408  24.7120000  61.4929408 135.4689408  24.4070000
  63.0069408 135.4519408  24.4130000  80.1359408 136.2199408  28.9780000
  79.9219408 135.3049408  28.7990000  80.5769408 136.2019408  29.8280000
  80.0029408 129.2039408  23.4090000  80.8009408 128.6759408  23.4560000
  79.3039408 128.6049408  23.6730000  83.6059408 132.7209408  14.1930000
  83.3069408 132.6279408  13.2890000  83.8659408 133.6389408  14.2670000
  81.9269408 138.4589408  27.4240000  81.6859408 139.2179408  27.9550000
  81.2059408 137.8409408  27.5460000  80.6599408 140.6539408  28.5530000
  80.8069408 140.9329408  29.4560000  80.5649408 141.4699408  28.0610000
  83.0969408 127.0939408  20.7320000  83.5719408 127.7899408  20.2780000
  83.5829408 126.2959408  20.5220000  60.1209408 127.1739408  25.0360000
  61.0009408 127.3079408  24.6820000  59.6779408 128.0119408  24.9010000
  81.2829408 124.2129408  10.2370000  82.1709408 124.4309408  10.5200000
  80.9569408 125.0169408   9.8310000  65.2779408 131.5559408   7.5480000
  64.8449408 130.9229408   8.1220000  65.5749408 132.2489408   8.1370000
  66.0519408 126.0389408  12.9900000  66.7619408 125.9259408  12.3580000
  65.9799408 126.9859408  13.1040000  85.8779408 134.2189408  25.3820000
  85.9199408 133.5969408  26.1090000  85.3539408 134.9449408  25.7190000
  86.9689408 146.1229408  22.1750000  87.8909408 146.2139408  22.4190000
  86.8059408 146.8519408  21.5770000  60.5089408 129.7659408  13.8980000
  59.8269408 129.7809408  14.5700000  60.2249408 129.0889408  13.2830000
  82.0069408 133.9469408  16.1180000  82.6479408 133.3789408  15.6900000
  82.4899408 134.3509408  16.8390000  81.3509408 143.5839408  27.1550000
  82.0519408 144.1379408  26.8110000  80.8199408 144.1729408  27.6900000
  63.1369408 135.9089408  17.4420000  63.2879408 136.7359408  17.8990000
  62.3239408 136.0479408  16.9560000  84.1139408 123.7159408  21.1230000
  84.5879408 124.4759408  20.7840000  84.5419408 123.5189408  21.9560000
  59.8739408 129.2279408  27.4500000  60.4399408 129.4969408  26.7260000
  60.4529408 128.7489408  28.0430000  73.7419408 126.4529408  15.6390000
  74.2449408 126.8479408  14.9270000  73.4279408 127.1979408  16.1520000
  88.1879408 132.5169408  29.3490000  89.0379408 132.9559408  29.3450000
  88.2049408 131.9679408  30.1330000  63.9139408 134.3159408  20.0960000
  63.3239408 135.0459408  20.2810000  63.8699408 134.2069408  19.1460000
  79.3529408 129.0949408  19.9650000  78.9699408 129.8979408  20.3180000
  79.1119408 128.4159408  20.5960000  65.4609408 134.3169408  26.1370000
  64.8509408 133.6819408  25.7600000  66.2679408 133.8219408  26.2740000
  66.1759408 123.6459408  23.8610000  67.0319408 123.4339408  24.2340000
  65.6269408 123.8449408  24.6190000  60.6509408 134.1239408  23.5250000
  59.7119408 133.9479408  23.5810000  60.9809408 133.4709408  22.9080000
  62.0539408 132.5049408  21.6720000  62.7779408 133.0489408  21.3630000
  61.3189408 132.7389408  21.1060000  87.4739408 128.2959408   7.3770000
  87.0789408 129.0559408   6.9490000  87.4529408 127.6089408   6.7110000
  64.6389408 128.2059408   0.3610000  64.5499408 129.1419408   0.5400000
  65.5799408 128.0399408   0.4160000  63.5789408 125.2939408  14.7230000
  64.2869408 125.7469408  14.2640000  62.8469408 125.9109408  14.7040000
  74.3679408 128.5949408  20.4910000  74.4269408 129.5469408  20.5680000
  74.3979408 128.4279408  19.5490000  62.4339408 149.4479408  21.3220000
  61.7669408 148.7629408  21.3040000  62.1439408 150.0829408  20.6670000
  79.6399408 137.0629408  21.6660000  80.2749408 137.2579408  22.3550000
  79.4069408 137.9179408  21.3040000  87.1349408 132.3819408  21.4320000
  86.3539408 131.8949408  21.6950000  87.7049408 132.3559408  22.2000000
  61.7099408 124.5589408  17.3620000  61.2679408 124.1129408  16.6390000
  61.0809408 125.2169408  17.6580000  63.7859408 123.1389408   5.5410000
  64.7399408 123.2159408   5.5740000  63.5029408 123.8839408   5.0110000
  82.3099408 130.3559408  21.7640000  81.7209408 131.1059408  21.6740000
  81.7629408 129.6659408  22.1410000  88.6129408 140.5529408  20.3810000
  89.2029408 140.8629408  21.0670000  88.5069408 141.3039408  19.7970000
  78.5159408 145.7009408   0.7170000  78.6129408 146.6029408   1.0230000
  79.1969408 145.5999408   0.0510000  84.3199408 135.3179408  13.4330000
  83.7379408 136.0469408  13.2200000  84.8819408 135.6559408  14.1310000
  82.5469408 135.5769408   4.2880000  81.8889408 136.0879408   3.8160000
  82.4899408 134.7009408   3.9070000  84.5779408 146.1839408  19.7680000
  85.3119408 145.7339408  19.3490000  83.8019408 145.8429408  19.3220000
  81.9709408 149.7309408   4.2900000  81.4919408 150.5529408   4.3860000
  82.2929408 149.5359408   5.1700000  79.7779408 143.9979408  13.5600000
  80.2779408 144.1409408  12.7560000  80.3799408 143.5269408  14.1360000
  76.2369408 122.5929408   7.0360000  76.4979408 121.7169408   6.7530000
  77.0569408 123.0199408   7.2820000  77.8549408 123.6489408   8.8230000
  78.0219408 124.5789408   8.9790000  77.6949408 123.2839408   9.6930000
  80.3289408 144.1079408   2.8240000  79.6049408 144.5969408   2.4350000
  80.2499408 144.2699408   3.7640000  87.1489408 141.4149408   8.1260000
  87.0169408 141.9989408   8.8730000  86.3659408 140.8649408   8.1090000
  81.1139408 122.1109408   4.7390000  81.1109408 122.6599408   5.5240000
  81.5609408 122.6399408   4.0780000  82.0079408 130.1399408  16.2200000
  81.9829408 130.3189408  15.2790000  82.8879408 129.7949408  16.3750000
  76.6089408 138.0909408  13.3550000  76.7289408 137.5009408  12.6110000
  77.4469408 138.5439408  13.4390000  87.8639408 137.4319408   9.3610000
  87.7469408 137.2979408  10.3010000  88.3079408 138.2779408   9.2930000
  61.0329408 145.6039408  13.9710000  60.2089408 145.2399408  14.2930000
  61.2309408 145.0919408  13.1870000  61.9339408 149.6879408  18.6420000
  62.2469408 148.7839408  18.6550000  61.5109408 149.7829408  17.7880000
  61.1559408 138.4609408  20.0400000  60.2709408 138.7809408  19.8660000
  61.0349408 137.5459408  20.2950000  62.0799408 148.3339408   3.5080000
  61.6479408 148.7749408   2.7770000  62.4669408 149.0439408   4.0210000
  77.4589408 139.6149408   6.9330000  76.5709408 139.2699408   7.0270000
  77.7209408 139.3639408   6.0470000  85.5019408 145.3549408  28.7860000
  86.3499408 144.9159408  28.7100000  85.0439408 145.1329408  27.9750000
  86.6749408 137.5639408  13.5590000  86.2789408 137.7839408  14.4030000
  86.8119408 136.6169408  13.5990000  79.9319408 143.5469408   5.4520000
  79.4589408 142.7149408   5.4690000  80.8459408 143.3059408   5.6030000
  83.0439408 141.6259408  13.4910000  82.5689408 141.6099408  12.6600000
  83.9519408 141.4399408  13.2520000  81.5259408 147.0239408   3.9340000
  81.8329408 146.7029408   3.0860000  81.8009408 147.9409408   3.9570000
  82.5659408 143.1829408   6.2490000  82.5139408 142.3989408   6.7960000
  83.4839408 143.2299408   5.9820000  62.7359408 143.2419408  21.7040000
  62.8889408 143.6109408  20.8350000  62.5469408 143.9999408  22.2570000
  85.2289408 123.2469408  12.4100000  84.8559408 122.6399408  11.7710000
  86.0849408 123.4789408  12.0500000  63.0529408 146.7679408  15.5720000
  62.4119408 146.2939408  15.0430000  63.1159408 147.6289408  15.1590000
  84.1119408 141.8259408   3.7350000  84.7569408 142.4489408   4.0690000
  84.4369408 141.5849408   2.8680000  85.3229408 136.5199408   3.7300000
  85.4299408 135.8639408   3.0410000  84.4889408 136.2979408   4.1450000
  61.2079408 144.3789408  28.9760000  60.7519408 143.5889408  29.2650000
  62.1189408 144.1049408  28.8680000  85.6729408 140.8899408  23.2500000
  85.9379408 141.6929408  22.8020000  85.0279408 140.4909408  22.6670000
  88.0719408 135.0429408  14.1250000  88.3279408 134.1539408  13.8810000
  88.7059408 135.6059408  13.6790000  81.4969408 137.6769408   8.9910000
  80.6869408 137.9649408   9.4120000  81.2069408 137.1699408   8.2330000
  81.3089408 141.2979408  10.9070000  80.3719408 141.3809408  11.0840000
  81.3559408 140.9219408  10.0280000  79.9409408 145.9629408  28.3800000
  79.0549408 146.3189408  28.3170000  80.3819408 146.2749408  27.5900000
  82.7679408 139.3119408  17.3790000  82.3009408 140.0629408  17.0110000
  83.4259408 139.6989408  17.9570000  79.7129408 141.5399408   7.5910000
  79.1179408 140.8719408   7.2500000  80.5109408 141.0599408   7.8100000
  83.7039408 137.7479408  10.5130000  84.1529408 136.9339408  10.2860000
  82.9529408 137.7799408   9.9200000  87.4709408 145.8359408   6.5070000
  87.7579408 144.9329408   6.6370000  87.3959408 145.9299408   5.5570000
  87.1539408 145.2229408  18.8610000  87.2309408 144.5909408  18.1470000
  87.9429408 145.7599408  18.7930000  88.9979408 135.2499408  17.3840000
  88.6679408 135.0439408  18.2580000  88.5579408 134.6249408  16.8080000
  77.0249408 142.7099408  17.6690000  76.8809408 142.0149408  17.0260000
  76.7759408 143.5139408  17.2140000  85.5159408 122.1409408   2.2740000
  84.6969408 122.6339408   2.2290000  85.2789408 121.3189408   2.7030000
  87.8379408 136.4779408   4.9610000  87.1649408 136.4449408   4.2810000
  88.2269408 137.3489408   4.8720000  78.1619408 131.4479408  18.1310000
  78.1129408 131.6889408  19.0560000  79.0279408 131.7449408  17.8520000
  71.7949408 124.1809408  15.4660000  71.0579408 124.3869408  16.0420000
  72.4969408 124.7619408  15.7580000  84.6279408 149.7129408   3.2650000
  83.6809408 149.5999408   3.3410000  84.9819408 149.3039408   4.0550000
  84.1549408 148.4689408   8.6710000  84.9869408 147.9959408   8.6860000
  83.5239408 147.8559408   9.0480000  87.6299408 148.3429408   7.5860000
  87.5669408 147.3909408   7.5050000  87.5549408 148.5079408   8.5260000
  86.7179408 143.2369408  17.1170000  87.0469408 143.5299408  16.2670000
  86.4409408 142.3329408  16.9690000  88.6429408 143.4169408   2.1320000
  89.5469408 143.7219408   2.2000000  88.2299408 144.0239408   1.5180000
  78.1019408 149.3339408  13.8490000  78.8249408 149.9569408  13.9170000
  78.5209408 148.5029408  13.6270000  60.8829408 135.8929408  20.9960000
  61.0199408 135.6469408  21.9110000  60.0429408 135.4959408  20.7640000
  89.7119408 147.0349408  18.1520000  89.5509408 147.4989408  17.3300000
  89.2639408 147.5589408  18.8150000  67.1339408 143.6299408  17.5170000
  66.9599408 144.4419408  17.0430000  67.4829408 143.0339408  16.8540000
  64.8129408 140.6049408  20.3340000  64.8989408 141.5329408  20.5520000
  64.8869408 140.1529408  21.1740000  85.3029408 146.0099408  11.7730000
  85.0519408 145.5969408  10.9470000  84.6769408 146.7259408  11.8830000
  75.4609408 143.4619408   3.0360000  75.9439408 143.2799408   2.2300000
  75.3659408 142.6069408   3.4560000  73.5109408 147.9189408  15.3630000
  74.4469408 147.8499408  15.5500000  73.2639408 147.0499408  15.0470000
  85.1669408 145.1589408   1.8110000  84.2559408 144.8679408   1.8270000
  85.3879408 145.2049408   0.8810000  81.1539408 147.1659408   6.5480000
  81.4189408 146.9389408   5.6570000  81.5359408 148.0299408   6.7000000
  77.0539408 146.8609408  28.2050000  76.3929408 147.1089408  28.8510000
  76.5519408 146.4939408  27.4770000  76.0469408 124.5639408  15.7710000
  76.0809408 124.5099408  16.7260000  75.4529408 125.2939408  15.5940000
  62.8799408 147.4629408  12.2670000  62.0239408 147.0379408  12.2150000
  63.2679408 147.3299408  11.4030000  88.6919408 139.2009408   3.8620000
  89.5599408 138.8229408   3.7170000  88.1619408 138.8679408   3.1380000
  87.3199408 138.8899408   1.5420000  87.8129408 139.1749408   0.7720000
  87.3469408 137.9339408   1.5040000  60.1709408 145.8719408   3.6420000
  60.6029408 145.3299408   2.9810000  60.8439408 146.4929408   3.9200000
  81.9069408 140.2649408   8.2860000  81.7919408 139.3209408   8.3890000
  82.4119408 140.3589408   7.4790000  80.8209408 145.7819408  11.5460000
  80.6039408 145.9449408  10.6280000  80.7959408 146.6459408  11.9560000
  87.3569408 121.1799408   6.2670000  87.6309408 121.6629408   5.4870000
  88.0139408 120.4909408   6.3660000  78.4929408 140.8929408  11.3400000
  78.2899408 140.2629408  10.6490000  77.8709408 141.6069408  11.2050000
  87.5929408 148.9229408  10.4380000  87.4519408 149.3709408  11.2720000
  88.5019408 148.6269408  10.4740000  69.8979408 148.3239408  17.5680000
  70.5479408 147.6229408  17.5210000  69.0609408 147.8869408  17.4100000
  60.6229408 145.0849408  19.8260000  61.5509408 144.8679408  19.9130000
  60.5909408 145.7159408  19.1080000  72.2699408 136.4249408  28.7760000
  72.9509408 137.0969408  28.8060000  72.4539408 135.9319408  27.9760000
  89.5049408 129.6089408   3.9390000  89.2369408 129.4409408   3.0360000
  90.3389408 129.1489408   4.0320000  84.9399408 148.5519408  12.8940000
  85.6679408 148.0659408  13.2810000  85.3499408 149.3119408  12.4820000
  86.2609408 140.5759408  16.5330000  85.9599408 139.7359408  16.1870000
  87.1519408 140.4039408  16.8380000  60.9209408 149.9589408   9.9480000
  61.4189408 149.3979408   9.3520000  60.0779408 150.0829408   9.5120000
  60.1289408 120.2789408   6.1440000  60.1339408 120.2069408   5.1890000
  60.6739408 119.5509408   6.4420000  80.1059408 146.3139408   8.9570000
  80.3829408 146.3689408   8.0430000  79.8789408 147.2129408   9.1940000
  83.6379408 149.1839408  27.3740000  83.8629408 148.6559408  28.1400000
  83.7149408 150.0889408  27.6760000  77.8029408 121.4979408   2.0150000
  77.8179408 121.3079408   2.9530000  77.9959408 120.6579408   1.5970000
  81.2849408 141.4409408   3.2030000  82.1909408 141.6019408   3.4660000
  80.9289408 142.3109408   3.0260000  84.8339408 138.1349408  15.5300000
  85.1179408 137.2749408  15.8380000  84.2629408 138.4619408  16.2250000
  85.9399408 143.0769408  10.1740000  85.0409408 142.8989408  10.4490000
  85.8779408 143.8789408   9.6550000  60.5509408 143.0329408   8.3860000
  60.1859408 143.4379408   7.6000000  59.8569408 143.1109408   9.0410000
  79.0939408 145.2559408  17.6310000  78.8449408 145.5209408  18.5160000
  78.5189408 144.5169408  17.4310000  84.6889408 146.4959408  23.9890000
  85.4609408 146.4079408  23.4300000  84.0209408 145.9579408  23.5630000
  79.7889408 147.3129408  23.2930000  80.5389408 147.1429408  22.7230000
  79.6029408 148.2449408  23.1720000  86.0789408 148.6559408   5.3270000
  86.5179408 148.9459408   6.1270000  86.5309408 147.8469408   5.0860000
  81.9989408 147.5469408   1.0180000  82.9239408 147.6119408   0.7810000
  81.7279408 146.6889408   0.6910000  77.6129408 140.7449408   3.2240000
  77.4149408 139.8939408   2.8320000  77.7729408 141.3209408   2.4770000
  88.7029408 143.2359408  20.3090000  89.5569408 143.6369408  20.1500000
  88.0819408 143.8059408  19.8540000  79.1839408 142.3919408  19.3730000
  78.8759408 142.0519408  20.2130000  78.3959408 142.4469408  18.8330000
  88.9259408 139.3549408  29.1130000  88.4939408 139.0299408  28.3230000
  89.7449408 138.8629408  29.1590000  82.4529408 142.8319408  24.3870000
  83.2899408 143.2969408  24.4070000  81.9209408 143.3219408  23.7600000
  89.3329408 140.1069408   9.6110000  90.1389408 140.5079408   9.2850000
  88.7129408 140.1949408   8.8870000  89.7389408 121.2499408  22.7270000
  89.9719408 120.5979408  22.0660000  88.7969408 121.1349408  22.8560000
  74.6139408 144.3099408  28.8680000  73.7559408 144.7329408  28.8890000
  75.0889408 144.7639408  28.1720000  61.4839408 140.5129408  26.1210000
  61.9909408 139.8839408  25.6070000  60.8779408 140.9039408  25.4910000
  86.4009408 130.1289408  29.6700000  86.3809408 130.6799408  30.4520000
  86.2529408 130.7369408  28.9450000  89.0999408 146.4319408  25.9860000
  88.5239408 146.4859408  26.7480000  88.5919408 145.9469408  25.3350000
  87.4289408 144.6289408  24.5640000  86.6139408 144.5409408  24.0710000
  87.3679408 143.9629408  25.2490000  86.4519408 138.2429408  23.9800000
  86.5979408 139.0739408  23.5290000  85.5169408 138.0689408  23.8690000
  86.6279408 125.1689408  30.1560000  85.8039408 124.7719408  29.8740000
  86.6229408 126.0389408  29.7570000  62.8429408 145.7119408  23.1490000
  63.7689408 145.4969408  23.0340000  62.8479408 146.5679408  23.5780000
  83.8769408 141.7659408  27.1800000  84.5629408 142.2469408  26.7180000
  83.0929408 142.3049408  27.0720000  88.0669408 135.0089408  20.1910000
  88.0739408 135.9439408  19.9830000  87.1889408 134.8459408  20.5340000
  86.0639408 137.5379408  28.8710000  86.7539408 136.9079408  28.6660000
  86.4249408 138.3839408  28.6060000  89.9059408 148.0329408  21.8660000
  89.3759408 148.3819408  22.5830000  90.0419408 147.1129408  22.0930000
  87.5559408 143.3009408  28.4550000  88.1949408 143.8009408  28.9620000
  88.0589408 142.9369408  27.7270000  87.8099408 137.9179408  26.6380000
  87.3599408 138.3039408  25.8870000  87.8709408 136.9859408  26.4280000
  80.8229408 140.4389408  24.5460000  81.4419408 141.1659408  24.6110000
  80.8099408 140.2179408  23.6140000  86.1169408 120.6769408  26.5390000
  85.8869408 120.0879408  25.8210000  86.9099408 120.2969408  26.9170000
  84.0979408 132.2559408  29.3850000  83.7049408 133.1289408  29.3770000
  83.3609408 131.6629408  29.5350000  63.7959408 122.6399408   1.5360000
  63.1589408 123.0979408   0.9870000  63.2689408 122.0539408   2.0780000
  89.0779408 142.0099408  26.4940000  89.7929408 141.5059408  26.8830000
  89.4689408 142.4279408  25.7270000  86.4579408 142.1029408  25.8250000
  87.2999408 141.6859408  26.0080000  86.1359408 141.6579408  25.0400000
  84.2699408 149.2149408  24.6630000  84.2869408 148.9489408  25.5820000
  84.4699408 148.4149408  24.1780000  79.3969408 142.8279408  25.2380000
  79.5079408 142.1059408  24.6190000  80.1119408 142.7199408  25.8640000
  80.7379408 123.9019408  20.2470000  80.8629408 123.9519408  19.3000000
  81.6089408 124.0529408  20.6130000  89.0199408 148.8129408  24.3330000
  89.8619408 149.1639408  24.6250000  88.8459408 148.0819408  24.9260000
  86.1579408 146.4039408   3.9090000  85.6669408 147.2129408   4.0520000
  85.8099408 146.0549408   3.0890000  77.0399408 148.4119408  24.8180000
  77.5809408 148.5059408  25.6020000  77.1749408 147.5059408  24.5410000
  83.6199408 144.9529408  22.0760000  82.8519408 144.5989408  21.6270000
  84.1499408 145.3379408  21.3780000  81.2529408 143.5169408  20.7880000
  80.5179408 143.0819408  20.3570000  80.8559408 143.9929408  21.5170000
  63.1729408 149.6979408  23.8650000  62.8949408 149.4999408  22.9710000
  63.6089408 150.5479408  23.7990000  84.4219408 129.4159408  20.1160000
  85.2529408 129.6309408  20.5400000  83.7539408 129.7569408  20.7110000
  62.7039408 141.1609408   0.5350000  61.8629408 141.6189408   0.5440000
  62.8899408 141.0209408  -0.3940000  78.5739408 146.5729408  19.9790000
  79.3969408 147.0059408  20.2050000  77.9349408 146.9379408  20.5900000
  83.9579408 121.6669408  23.3620000  83.0839408 121.9459408  23.6370000
  84.0009408 120.7409408  23.6010000  88.8059408 136.1259408  29.0390000
  89.4149408 136.8549408  28.9240000  89.3669408 135.3549408  29.1220000
  83.5929408 140.4459408   6.1030000  84.4549408 140.0469408   6.2220000
  83.6239408 140.8299408   5.2270000  81.0189408 141.9559408  17.3460000
  80.6409408 142.0609408  18.2200000  81.4569408 142.7889408  17.1720000
  89.3579408 126.4659408  21.7420000  88.9689408 126.1709408  20.9190000
  89.0259408 125.8529408  22.3980000  65.0389408 140.2599408  23.3180000
  65.4329408 140.8059408  23.9980000  64.2329408 139.9279408  23.7140000
  84.5659408 147.9129408  29.5880000  84.9279408 147.0679408  29.3220000
  85.1819408 148.2429408  30.2420000  82.3159408 120.6029408   0.0200000
  82.8489408 120.3259408   0.7650000  82.9519408 120.8169408  -0.6630000
  62.0639408 122.4419408  19.6400000  62.0359408 123.1009408  18.9460000
  61.3919408 121.8059408  19.3950000  76.0279408 149.2599408  18.5900000
  75.0909408 149.1729408  18.4130000  76.1359408 148.9249408  19.4800000
  80.3859408 144.2079408  23.2040000  80.0829408 145.1069408  23.3300000
  79.8389408 143.6859408  23.7910000  60.8689408 126.2169408   0.9050000
  61.1979408 126.6709408   0.1290000  61.6129408 126.1979408   1.5060000
  64.5629408 145.8619408  25.9740000  63.6279408 146.0279408  26.0910000
  64.7009408 144.9909408  26.3480000  70.0009408 146.2329408  21.9690000
  70.8279408 145.7619408  22.0740000  70.2609408 147.1449408  21.8330000
  73.1139408 149.2469408  18.1040000  73.4209408 148.6579408  17.4150000
  72.3449408 149.6749408  17.7280000  64.1209408 133.6749408  43.7610000
  64.0209408 134.4239408  44.3480000  64.6659408 133.0579408  44.2490000
  79.4019408 137.0039408  33.4620000  79.3069408 136.1259408  33.8320000
  78.6369408 137.1089408  32.8970000  81.2879408 125.2629408  59.9310000
  80.5409408 124.9539408  60.4440000  80.9199408 125.9259408  59.3470000
  66.9639408 147.2739408  34.1330000  66.2589408 146.7169408  34.4630000
  66.9889408 148.0129408  34.7410000  81.1249408 121.1489408  51.7350000
  80.9649408 120.2999408  51.3230000  81.6349408 121.6379408  51.0890000
  66.7109408 138.7099408  51.4700000  66.3839408 139.3649408  52.0880000
  67.6529408 138.8729408  51.4250000  71.8849408 131.9679408  42.0810000
  71.2899408 131.2449408  42.2800000  72.7569408 131.5759408  42.1090000
  65.8789408 126.9689408  38.7010000  65.4139408 126.1719408  38.4480000
  65.9029408 127.4959408  37.9020000  75.1049408 137.8279408  45.6050000
  74.2939408 137.6459408  45.1300000  75.7899408 137.7719408  44.9380000
  60.6359408 134.0729408  38.5360000  59.8129408 134.3929408  38.1640000
  60.9089408 133.3719408  37.9450000  78.8559408 138.6129408  39.2840000
  78.4689408 138.1719408  40.0410000  78.1489408 139.1559408  38.9360000
  69.0639408 128.6819408  47.8260000  68.4579408 128.2489408  48.4280000
  69.3939408 127.9759408  47.2700000  71.2259408 131.3479408  35.7040000
  70.6419408 131.7979408  36.3140000  71.6789408 130.6969408  36.2400000
  77.4669408 135.2269408  47.9080000  77.9479408 135.1439408  48.7320000
  78.1319408 135.1079408  47.2300000  82.0799408 129.5039408  36.3360000
  81.9909408 129.7379408  35.4120000  82.7389408 130.1109408  36.6740000
  65.6149408 133.6859408  38.9500000  65.7649408 133.7169408  39.8950000
  64.7539408 134.0859408  38.8300000  89.3079408 138.9599408  45.2020000
  89.6479408 139.5329408  45.8900000  89.8979408 139.0979408  44.4610000
  62.5329408 127.1629408  58.8470000  63.2739408 127.5749408  59.2930000
  62.8629408 126.9599408  57.9720000  72.9309408 145.5519408  44.1980000
  73.8639408 145.3599408  44.1090000  72.5239408 145.1209408  43.4470000
  88.0369408 125.5629408  35.5490000  87.0969408 125.6829408  35.4130000
  88.2159408 124.6789408  35.2300000  78.3629408 141.3589408  30.6810000
  77.7089408 142.0489408  30.5670000  78.2789408 140.8169408  29.8970000
  70.6849408 135.9839408  36.6650000  71.1339408 136.8249408  36.7490000
  69.8769408 136.0929408  37.1670000  78.4319408 124.8569408  55.0460000
  78.1149408 124.5139408  55.8810000  78.3719408 124.1159408  54.4430000
  88.7999408 129.9389408  45.7730000  87.8609408 129.9999408  45.5990000
  88.8569408 129.5959408  46.6650000  62.3889408 140.7699408  33.8460000
  63.1819408 141.3059408  33.8470000  62.6729408 139.9199408  34.1820000
  77.9779408 134.4559408  40.6650000  77.2519408 134.3639408  40.0480000
  77.7039408 133.9559408  41.4340000  69.6549408 144.0029408  60.1860000
  69.0479408 144.5939408  59.7410000  70.5229408 144.3469408  59.9750000
  73.5299408 134.6779408  30.5350000  72.9009408 133.9769408  30.7060000
  73.0779408 135.2629408  29.9270000  76.9329408 142.0279408  43.3670000
  77.2779408 142.9039408  43.1980000  77.6629408 141.4399408  43.1730000
  64.4319408 148.7859408  56.2340000  64.8979408 148.1089408  55.7430000
  63.7839408 149.1269408  55.6170000  71.7599408 143.1179408  38.5430000
  71.6899408 143.8819408  37.9720000  72.0759408 142.4179408  37.9710000
  74.5309408 146.0489408  31.8910000  75.1549408 146.0429408  31.1650000
  74.9719408 145.5639408  32.5890000  61.5889408 127.8679408  35.1380000
  61.9129408 127.0799408  34.7030000  62.3749408 128.2939408  35.4810000
  64.3779408 121.6949408  46.6380000  63.4469408 121.8319408  46.4640000
  64.7679408 121.5709408  45.7730000  76.9779408 134.3809408  58.3850000
  77.8199408 133.9829408  58.6060000  77.1409408 134.8459408  57.5640000
  71.0189408 122.1809408  48.1460000  70.7569408 123.1019408  48.1390000
  71.6919408 122.1279408  48.8240000  75.4189408 134.0349408  43.0950000
  74.8099408 133.9809408  43.8320000  74.8679408 134.2559408  42.3440000
  66.8749408 146.9259408  39.7580000  67.0919408 147.8089408  40.0560000
  67.0169408 146.9499408  38.8120000  72.2769408 129.0759408  56.9600000
  71.8759408 129.8269408  56.5240000  72.9859408 129.4519408  57.4820000
  88.5349408 135.5709408  37.6430000  88.4489408 136.1489408  36.8850000
  88.1879408 136.0809408  38.3750000  68.3539408 126.3839408  33.5020000
  69.0179408 126.9059408  33.0520000  67.9879408 126.9769408  34.1590000
  84.3849408 129.4109408  47.3650000  84.7209408 128.5179408  47.2950000
  84.2909408 129.5589408  48.3060000  67.7939408 133.7699408  37.0920000
  67.1589408 133.5089408  37.7590000  68.3649408 133.0079408  36.9930000
  69.0859408 122.8069408  42.3010000  69.2659408 123.2629408  41.4790000
  69.7729408 123.1059408  42.8980000  75.8509408 133.9929408  39.0110000
  75.1649408 134.5659408  38.6690000  75.4019408 133.1709408  39.2080000
  67.6489408 137.3009408  42.5020000  67.1329408 137.8939408  43.0490000
  67.6139408 136.4609408  42.9600000  82.4549408 123.6049408  32.6640000
  81.6819408 123.5749408  32.1000000  82.7979408 124.4919408  32.5530000
  81.2289408 140.5009408  44.9470000  80.8759408 141.0379408  45.6570000
  81.9479408 141.0209408  44.5870000  67.2079408 128.2029408  59.8520000
  67.3599408 128.7419408  60.6280000  68.0649408 128.1409408  59.4310000
  70.4099408 145.8839408  56.7950000  70.4019408 146.2829408  55.9250000
  69.6159408 146.2129408  57.2170000  71.1919408 146.2969408  31.5580000
  71.2509408 147.2469408  31.6600000  71.6389408 145.9449408  32.3270000
  64.6869408 123.6109408  42.3470000  63.8339408 123.9499408  42.0730000
  65.2309408 124.3909408  42.4540000  73.1469408 132.3189408  57.0580000
  73.5739408 132.0469408  56.2450000  73.8619408 132.4039408  57.6880000
  71.3659408 140.8169408  42.9800000  71.3449408 141.5859408  42.4090000
  72.2869408 140.5579408  42.9990000  75.5709408 124.5019408  53.2080000
  76.1229408 125.1429408  52.7600000  75.2669408 123.9189408  52.5130000
  74.5329408 139.5259408  37.8070000  74.0209408 138.9609408  38.3850000
  73.9069408 140.1799408  37.4950000  64.9169408 134.0799408  36.0540000
  65.2429408 133.2809408  36.4690000  64.3959408 134.5079408  36.7330000
  71.9419408 124.9309408  48.4310000  72.8109408 125.3169408  48.3240000
  71.7659408 124.9919408  49.3700000  62.9999408 143.7209408  34.9930000
  62.5599408 143.1309408  35.6050000  63.7909408 143.2499408  34.7310000
  69.3909408 125.9979408  43.5600000  68.4679408 125.8209408  43.7410000
  69.5449408 125.6099408  42.6990000  66.4589408 139.0469408  44.2110000
  65.7969408 138.9559408  44.8960000  67.0899408 139.6709408  44.5690000
  72.7269408 124.7419408  43.0350000  73.5559408 124.2759408  42.9230000
  72.3699408 124.4009408  43.8560000  70.9189408 135.5149408  41.9010000
  70.0709408 135.1079408  41.7250000  70.7289408 136.4519408  41.9560000
  71.2779408 128.6519408  39.3500000  71.3409408 127.9429408  39.9910000
  70.6729408 129.2789408  39.7440000  67.3769408 148.8119408  31.6800000
  66.6809408 148.2869408  31.2850000  67.2869408 148.6599408  32.6210000
  75.6899408 138.6069408  34.5490000  75.8669408 138.6029408  33.6090000
  76.2479408 137.9129408  34.9010000  69.4119408 128.7209408  36.5640000
  69.9009408 128.4549408  37.3430000  70.0189408 129.2819408  36.0810000
  70.9679408 138.3959408  45.9660000  71.6029408 137.8829408  45.4660000
  70.1389408 137.9329408  45.8490000  69.0729408 130.0809408  39.9790000
  69.3089408 130.3209408  40.8750000  68.1399408 129.8699408  40.0250000
  68.6629408 143.0849408  35.7270000  69.1639408 142.7029408  36.4480000
  69.3049408 143.2099408  35.0280000  62.7639408 130.3209408  45.9390000
  62.1979408 130.7929408  45.3280000  62.1579408 129.8679408  46.5260000
  63.7929408 125.9289408  48.5460000  64.5359408 125.3939408  48.2680000
  63.0419408 125.5539408  48.0850000  67.2649408 125.4869408  40.7700000
  66.6499408 126.0649408  40.3180000  67.6409408 124.9459408  40.0760000
  64.4899408 124.3149408  38.6110000  63.8189408 123.6769408  38.8510000
  64.7519408 124.0669408  37.7250000  78.2059408 131.1969408  41.0920000
  78.7899408 131.1579408  40.3350000  77.3289408 131.0939408  40.7250000
  83.6789408 139.2509408  55.6230000  82.9449408 138.9459408  56.1550000
  84.0749408 139.9529408  56.1400000  63.9959408 130.0319408  49.2360000
  64.7059408 129.4889408  48.8920000  64.1359408 130.8909408  48.8370000
  73.6049408 129.6929408  33.1680000  74.0819408 128.9459408  33.5280000
  74.2209408 130.4239408  33.2310000  70.6809408 131.2849408  30.4750000
  70.9629408 131.9649408  29.8630000  70.5939408 131.7389408  31.3140000
  66.1979408 148.7859408  37.3920000  65.6229408 149.3219408  37.9370000
  66.9389408 149.3569408  37.1890000  75.6389408 126.6119408  38.9870000
  75.6199408 126.6119408  39.9440000  76.5409408 126.8459408  38.7660000
  76.1629408 140.3279408  39.8410000  75.8969408 140.1039408  38.9500000
  75.7949408 139.6309408  40.3840000  78.8369408 139.6889408  43.6890000
  79.6529408 139.8079408  44.1740000  79.0429408 139.9709408  42.7980000
  67.3569408 134.9479408  44.1060000  66.7409408 134.6609408  44.7800000
  67.7119408 134.1349408  43.7450000  82.1589408 131.9809408  38.6940000
  82.2029408 132.9319408  38.6020000  82.8179408 131.6489408  38.0840000
  61.5759408 121.8369408  42.3790000  61.6699408 121.3979408  41.5340000
  61.7809408 122.7539408  42.1980000  69.7979408 133.5629408  50.7020000
  69.9119408 132.6129408  50.6900000  70.2249408 133.8659408  49.9000000
  65.8779408 131.1339408  58.3530000  66.6849408 131.2089408  58.8610000
  65.1959408 130.9759408  59.0060000  72.6309408 133.1459408  44.3340000
  72.2629408 133.3379408  43.4710000  72.9819408 132.2589408  44.2530000
  70.1429408 128.5439408  32.9460000  70.7999408 128.6049408  32.2530000
  70.5939408 128.8529408  33.7320000  64.7069408 135.4199408  53.1280000
  64.5639408 135.8999408  52.3120000  64.9709408 136.0909408  53.7570000
  62.9149408 136.4549408  44.3630000  63.5279408 137.1049408  44.7050000
  62.2449408 136.3749408  45.0420000  72.5159408 129.3919408  37.0440000
  72.9239408 128.9559408  36.2950000  72.6179408 128.7729408  37.7670000
  80.6819408 134.5549408  40.8580000  80.4699408 134.9719408  41.6930000
  79.8309408 134.3559408  40.4670000  78.2509408 130.8129408  57.5970000
  77.9399408 130.8729408  56.6940000  79.1989408 130.9269408  57.5330000
  65.0659408 132.1979408  48.1450000  65.8319408 131.7159408  47.8330000
  64.6889408 132.5859408  47.3550000  64.4699408 126.9909408  51.0950000
  64.3759408 126.7169408  50.1820000  64.4599408 127.9469408  51.0610000
  76.7989408 128.8369408  51.9130000  76.1259408 128.2629408  51.5470000
  77.3839408 128.2479408  52.3890000  77.3339408 121.3149408  47.3720000
  77.1459408 122.1649408  47.7700000  76.5919408 120.7639408  47.6200000
  64.3569408 144.6489408  43.1330000  65.1819408 145.0809408  42.9100000
  63.8739408 145.2999408  43.6410000  66.0859408 134.8579408  41.4430000
  65.4669408 135.3769408  40.9300000  65.9959408 135.1919408  42.3360000
  73.4409408 136.1729408  38.5040000  73.3789408 135.9409408  37.5780000
  72.7799408 136.8539408  38.6260000  68.5019408 124.1379408  38.6120000
  68.8629408 124.4539408  37.7840000  68.9809408 123.3279408  38.7890000
  69.2219408 149.9579408  49.5540000  69.1209408 149.3189408  48.8490000
  69.7729408 150.6449408  49.1780000  65.8979408 146.1729408  45.7840000
  64.9769408 146.4009408  45.6590000  66.2559408 146.1269408  44.8980000
  64.1719408 128.0399408  36.5580000  63.5999408 128.3309408  37.2680000
  64.3229408 128.8259408  36.0330000  80.9309408 128.1219408  47.8530000
  80.4899408 128.4399408  48.6410000  81.2959408 128.9089408  47.4480000
  63.5469408 149.1949408  44.3880000  63.4529408 148.7309408  43.5560000
  64.0779408 149.9629408  44.1760000  67.6459408 135.5889408  30.5610000
  68.1379408 134.9059408  31.0160000  68.1499408 136.3889408  30.7110000
  69.0259408 136.3989408  45.6100000  68.7289408 136.0099408  46.4320000
  68.4029408 136.0809408  44.9560000  84.9449408 130.7089408  52.4340000
  84.4059408 130.1399408  52.9830000  84.3479408 131.3989408  52.1430000
  72.9919408 126.0789408  50.9050000  73.2669408 126.9929408  50.8340000
  73.4549408 125.7489408  51.6750000  73.9919408 130.0189408  59.0960000
  74.7189408 129.4589408  59.3680000  74.3539408 130.5539408  58.3890000
  75.0069408 127.1169408  58.0480000  75.2319408 127.0419408  58.9750000
  74.1499408 126.6969408  57.9740000  79.7759408 137.0209408  36.7930000
  79.6259408 137.7959408  36.2530000  79.1299408 137.0889408  37.4960000
  84.9269408 135.3199408  39.5870000  85.3159408 134.5869408  40.0650000
  85.3279408 135.2809408  38.7190000  65.7419408 131.5499408  42.2860000
  65.5099408 131.7689408  43.1890000  66.5849408 131.9799408  42.1450000
  89.0709408 122.3679408  43.5800000  89.1899408 122.7229408  44.4610000
  89.9599408 122.2269408  43.2550000  75.3469408 127.8619408  43.5700000
  75.5059408 127.1419408  42.9600000  76.2199408 128.1279408  43.8590000
  73.9419408 147.7469408  41.2050000  73.6119408 147.6369408  42.0970000
  73.2129408 148.1429408  40.7270000  61.1999408 137.8119408  59.4490000
  61.9049408 138.0979408  60.0290000  61.6469408 137.3699408  58.7280000
  62.4759408 133.4329408  41.5170000  62.9669408 133.3179408  42.3310000
  62.3929408 134.3819408  41.4200000  64.0809408 130.9719408  40.1910000
  63.3579408 131.5829408  40.3280000  64.6869408 131.1519408  40.9110000
  62.4699408 122.2689408  39.4860000  61.9209408 123.0069408  39.2190000
  61.8819408 121.5139408  39.4670000  63.0199408 136.0899408  41.5960000
  62.9749408 136.1599408  42.5500000  63.1089408 136.9939408  41.2930000
  72.5739408 134.1909408  46.7410000  72.6879408 133.7449408  45.9010000
  73.3929408 134.6689408  46.8720000  75.7109408 132.0629408  58.0250000
  76.5479408 131.6029408  58.0980000  75.9129408 132.9669408  58.2670000
  69.4949408 135.9309408  33.8740000  69.7659408 135.7989408  34.7830000
  69.9059408 136.7569408  33.6190000  68.0449408 138.2839408  47.2700000
  67.8129408 137.5769408  47.8720000  68.2419408 137.8409408  46.4450000
  68.0199408 121.0509408  44.0630000  68.1869408 121.8039408  43.4960000
  68.5849408 121.1939408  44.8240000  72.3299408 143.4389408  34.0320000
  71.5709408 142.9229408  33.7610000  73.0749408 143.0059408  33.6160000
  63.8559408 148.2669408  36.1100000  63.5329408 149.1219408  35.8250000
  64.7399408 148.4389408  36.4320000  62.1229408 142.1309408  47.8600000
  62.8419408 141.8089408  47.3180000  62.3069408 143.0629408  47.9750000
  78.9909408 128.3469408  35.9690000  79.9089408 128.3779408  36.2400000
  78.8449408 127.4349408  35.7200000  65.8029408 136.0779408  34.3120000
  66.5949408 135.6419408  33.9980000  65.6179408 135.6609408  35.1540000
  75.6349408 131.6509408  33.7230000  76.4549408 131.1739408  33.8460000
  75.4639408 132.0589408  34.5730000  73.6209408 135.0579408  41.2560000
  72.8359408 135.3699408  41.7060000  73.5009408 135.3309408  40.3470000
  66.7349408 130.4089408  46.9120000  67.6709408 130.2119408  46.8740000
  66.3309408 129.5979408  47.2210000  69.1019408 139.7299408  52.1000000
  69.8669408 139.3959408  51.6300000  69.3469408 140.6199408  52.3550000
  68.8879408 140.4159408  31.5990000  68.2829408 139.7779408  31.9770000
  68.7719408 141.2019408  32.1330000  68.1309408 137.3219408  39.6840000
  68.1119408 138.2399408  39.4110000  67.9969408 137.3509408  40.6310000
  71.8609408 128.8709408  30.8180000  71.4729408 129.7019408  30.5460000
  72.8049408 129.0259408  30.7920000  74.0549408 140.7059408  49.8650000
  73.1819408 140.5199408  50.2090000  74.1139408 140.1809408  49.0660000
  68.7819408 134.8269408  40.5120000  67.8989408 134.6719408  40.8490000
  68.7299408 135.6859408  40.0920000  85.7759408 135.5769408  45.5950000
  86.5949408 135.4519408  45.1160000  85.8309408 134.9639408  46.3280000
  74.7319408 125.0299408  36.7360000  75.2879408 124.2539408  36.6670000
  75.2679408 125.6689408  37.2060000  74.7409408 138.3739408  58.8420000
  75.0239408 139.2489408  58.5730000  75.2609408 138.1829408  59.6220000
  74.8019408 135.4929408  46.8610000  74.9129408 136.3009408  46.3600000
  75.6729408 135.3059408  47.2110000  67.7279408 133.2519408  56.7680000
  67.4999408 132.7349408  57.5410000  68.4259408 133.8349408  57.0650000
  78.8059408 138.6449408  59.5420000  79.1739408 137.7629408  59.4910000
  79.4979408 139.2139408  59.2050000  87.4529408 132.4809408  42.6510000
  86.9679408 131.6609408  42.7380000  88.3159408 132.2169408  42.3320000
  79.8039408 130.9529408  38.8190000  80.7069408 131.2619408  38.7410000
  79.2889408 131.5889408  38.3220000  73.6759408 132.0399408  38.3110000
  72.9579408 132.4469408  38.7970000  73.3909408 131.1369408  38.1740000
  64.4319408 119.9699408  39.1520000  64.9539408 120.3289408  39.8690000
  63.7079408 120.5879408  39.0490000  63.1979408 135.2869408  37.9950000
  62.5999408 135.4139408  37.2590000  62.7259408 134.7069408  38.5910000
  73.4919408 130.2479408  45.4210000  74.1179408 130.9619408  45.5410000
  74.0109408 129.5349408  45.0460000  88.8019408 126.7519408  45.1170000
  88.5949408 126.3399408  44.2790000  87.9779408 127.1509408  45.3980000
  66.3509408 132.5299408  50.8020000  65.7639408 132.6359408  50.0530000
  66.8079408 133.3679408  50.8690000  62.1939408 122.4329408  45.0200000
  61.9859408 122.0149408  44.1840000  62.7589408 123.1699408  44.7850000
  80.3539408 121.1919408  44.3940000  81.2449408 121.0649408  44.0680000
  80.3279408 122.1089408  44.6690000  72.9529408 138.1909408  34.7110000
  72.8259408 138.4779408  35.6150000  73.8859408 138.3269408  34.5450000
  71.2079408 133.2309408  39.6310000  71.4929408 133.1859408  40.5430000
  70.4689408 133.8389408  39.6400000  65.2889408 136.5969408  31.2440000
  66.1979408 136.4009408  31.4730000  65.0949408 136.0109408  30.5130000
  65.9609408 121.2959408  40.8390000  66.7089408 121.8909408  40.8830000
  65.2019408 121.8499408  41.0230000  74.0369408 129.3019408  40.0320000
  73.0859408 129.2279408  39.9500000  74.3769408 128.5189408  39.5980000
  73.8409408 135.9929408  49.9150000  73.3829408 135.6059408  49.1690000
  74.1529408 136.8389408  49.5910000  77.9259408 133.8949408  44.1400000
  76.9729408 133.9149408  44.2200000  78.2449408 134.1439408  45.0080000
  77.9639408 124.7779408  30.3340000  77.0519408 125.0459408  30.4500000
  78.1979408 124.3589408  31.1630000  66.0819408 131.7559408  33.1260000
  65.2619408 132.2489408  33.0890000  66.7199408 132.3779408  33.4750000
  80.7849408 131.9599408  47.6010000  81.3309408 131.2469408  47.2700000
  80.9109408 132.6709408  46.9720000  76.0959408 130.7469408  39.5820000
  75.3069408 130.3579408  39.9590000  76.3329408 130.1619408  38.8630000
  71.8799408 131.9409408  33.1400000  71.5959408 131.9629408  34.0530000
  72.2839408 131.0799408  33.0340000  70.6029408 138.1769408  42.3180000
  69.6709408 138.0139408  42.4610000  70.6839408 139.1309408  42.3230000
  76.8019408 140.5669408  45.9690000  77.5409408 139.9729408  45.8380000
  76.7199408 141.0359408  45.1380000  77.8219408 130.6709408  54.7140000
  77.0509408 130.2079408  54.3860000  78.5589408 130.2549408  54.2680000
  80.9929408 136.8169408  31.4860000  81.3499408 137.6909408  31.3270000
  80.4049408 136.9299408  32.2320000  87.1529408 133.0869408  46.5300000
  87.5009408 132.5009408  47.2020000  86.4709408 132.5749408  46.0950000
  88.4819408 130.9349408  39.6410000  88.8959408 131.1749408  40.4700000
  88.9019408 131.4979408  38.9910000  74.8989408 146.5689408  38.8670000
  74.8359408 146.8249408  39.7880000  74.8469408 145.6129408  38.8800000
  66.4319408 129.2409408  39.6680000  65.6539408 129.7959408  39.6110000
  66.1929408 128.4429408  39.1960000  77.9739408 130.1959408  34.3400000
  78.5639408 130.9399408  34.4650000  78.2259408 129.5729408  35.0210000
  74.5639408 131.3319408  42.5050000  75.3129408 131.9219408  42.4160000
  74.8419408 130.5249408  42.0710000  65.8949408 139.3489408  40.4970000
  65.2319408 139.5939408  41.1420000  65.4229408 138.8129408  39.8600000
  68.3729408 143.4639408  43.1860000  69.1639408 143.9339408  42.9220000
  67.6539408 143.9979408  42.8490000  68.0019408 133.8009408  34.2870000
  68.6839408 134.4149408  34.0160000  67.9259408 133.9279408  35.2330000
  68.5919408 140.0079408  41.6570000  67.6919408 139.6829408  41.6220000
  68.5009408 140.9549408  41.7650000  68.5059408 149.5499408  34.7200000
  69.2599408 149.8159408  34.1930000  68.6619408 149.9459408  35.5770000
  64.0379408 147.2559408  39.9530000  64.9729408 147.0479408  39.9550000
  63.9999408 148.1869408  39.7350000  77.8569408 125.7969408  36.3200000
  78.7739408 125.6119408  36.1180000  77.3679408 125.4069408  35.5960000
  84.8209408 127.4299408  38.6100000  84.9309408 126.7309408  37.9650000
  85.4989408 128.0679408  38.3900000  69.6499408 131.8419408  37.8760000
  70.4039408 132.2779408  38.2730000  69.2779408 131.3139408  38.5820000
  77.8409408 131.3329408  51.0730000  77.5779408 130.4969408  51.4570000
  77.0239408 131.8229408  50.9800000  76.4069408 123.6289408  49.0480000
  77.1099408 124.2789408  49.0450000  76.1969408 123.5069408  49.9740000
  71.6449408 128.1269408  53.6070000  71.9199408 127.4939408  54.2710000
  71.9309408 128.9729408  53.9510000  78.3389408 128.6359408  47.0160000
  78.1949408 129.4509408  47.4970000  79.2549408 128.4159408  47.1850000
  67.4669408 129.5539408  56.4890000  67.0789408 130.1509408  57.1290000
  67.8689408 130.1279408  55.8380000  73.4879408 128.3599408  47.7820000
  72.5719408 128.4729408  48.0380000  73.7179408 129.1799408  47.3450000
  87.1329408 133.4899408  36.5760000  86.2129408 133.7239408  36.4540000
  87.5309408 134.2739408  36.9540000  65.3919408 129.8369408  51.5440000
  64.4879408 130.0839408  51.7380000  65.8819408 130.6569408  51.5990000
  75.6989408 133.6459408  51.5090000  74.9289408 134.2119408  51.4530000
  75.7449408 133.3939408  52.4310000  81.4999408 140.8909408  51.6630000
  81.5299408 141.8449408  51.5890000  81.2169408 140.5929408  50.7990000
  76.1989408 132.7839408  54.3270000  76.9519408 132.3809408  54.7590000
  75.5079408 132.1229408  54.3830000  80.3079408 132.6819408  51.5200000
  79.5659408 132.7069408  52.1230000  80.0339408 133.2229408  50.7790000
  83.5869408 131.2759408  33.3410000  82.6949408 131.6219408  33.3230000
  84.1119408 131.9439408  32.9000000  67.8799408 146.0279408  53.7110000
  68.5289408 146.2299408  53.0370000  67.0729408 145.8609408  53.2240000
  78.4169408 134.7709408  50.7260000  78.8399408 135.1919408  51.4750000
  77.5249408 134.5919408  51.0240000  74.9759408 135.1649408  53.9550000
  75.6309408 135.7189408  53.5300000  75.4869408 134.4979408  54.4130000
  80.1269408 137.4139408  47.2570000  80.8569408 138.0169408  47.1180000
  80.2649408 137.0689408  48.1390000  77.7229408 129.0149408  44.5310000
  78.2079408 129.8399408  44.5330000  77.7629408 128.7109408  45.4380000
  72.1429408 133.0499408  53.4810000  72.7959408 133.1569408  52.7890000
  71.8279408 133.9369408  53.6530000  69.2999408 124.7489408  46.6790000
  68.4779408 124.7659408  46.1890000  69.0309408 124.7099408  47.5970000
  70.2849408 129.8869408  42.5980000  70.8409408 129.1149408  42.4900000
  70.1829408 129.9779408  43.5460000  71.5199408 130.6549408  54.6330000
  71.7749408 131.4879408  54.2350000  70.7539408 130.3749408  54.1320000
  88.8309408 127.2719408  32.2880000  88.8699408 126.9779408  33.1980000
  89.5399408 126.7969408  31.8530000  72.8319408 126.0959408  55.8560000
  72.2219408 126.7999408  56.0740000  72.2899408 125.4319408  55.4300000
  82.0739408 129.3869408  59.4840000  82.9599408 129.0269408  59.4310000
  81.4999408 128.6319408  59.3590000  77.8369408 125.8009408  48.3520000
  78.7399408 125.6199408  48.0890000  77.7859408 126.7559408  48.3950000
  75.8959408 139.4069408  54.8660000  75.5879408 138.8379408  55.5710000
  76.8499408 139.3899408  54.9430000  72.3099408 137.8379408  48.4750000
  71.5999408 137.7869408  47.8350000  72.9599408 138.4099408  48.0670000
  81.5769408 130.0929408  43.5580000  80.8019408 130.5149408  43.9290000
  81.6999408 130.5189408  42.7100000  63.0429408 132.8729408  55.6090000
  63.5349408 132.7249408  54.8020000  62.7319408 132.0039408  55.8640000
  74.6799408 149.2389408  56.7010000  75.3729408 149.7719408  56.3100000
  74.3379408 149.7769408  57.4150000  65.6739408 143.6199408  30.0820000
  66.0949408 143.8689408  30.9050000  66.3839408 143.2649408  29.5480000
  63.0279408 138.2679408  31.4330000  63.1569408 139.2159408  31.4620000
  63.8729408 137.9189408  31.1520000  65.6639408 128.1749408  48.2520000
  66.2629408 127.8789408  48.9380000  65.1889408 127.3859408  47.9920000
  65.9109408 126.2639408  53.1760000  65.8639408 125.3079408  53.1610000
  65.2579408 126.5469408  52.5370000  63.5549408 132.7819408  33.2750000
  62.7219408 132.4139408  33.5720000  63.4619408 133.7249408  33.4110000
  72.0799408 122.2879408  55.6550000  71.8949408 122.3419408  56.5920000
  71.6749408 123.0719408  55.2840000  63.4729408 129.6029408  57.1470000
  63.7089408 128.7169408  56.8730000  64.0979408 129.8149408  57.8400000
  80.1159408 123.8369408  45.0270000  80.6079408 124.5009408  44.5440000
  79.2639408 123.8059408  44.5920000  69.1499408 149.6889408  52.5040000
  69.9349408 150.2339408  52.5540000  69.1679408 149.3219408  51.6200000
  70.2899408 136.9219408  56.2360000  70.6129408 136.3839408  55.5120000
  70.5349408 137.8159408  55.9980000  65.6959408 126.5609408  57.9650000
  66.2729408 126.7839408  57.2350000  66.2299408 126.7069408  58.7460000
  69.0229408 130.0999408  53.4030000  68.3649408 130.6929408  53.7660000
  68.5369408 129.3039408  53.1870000  62.6359408 129.1879408  42.6550000
  62.1249408 129.8089408  43.1730000  61.9839408 128.6069408  42.2650000
  75.5569408 145.5499408  56.2860000  74.8219408 144.9969408  56.0220000
  76.0899408 145.6339408  55.4950000  67.1549408 127.1399408  55.5410000
  66.6739408 127.0259408  54.7220000  67.2739408 128.0859408  55.6200000
  74.3109408 130.8199408  55.0000000  73.4729408 130.6859408  54.5580000
  74.6099408 129.9379408  55.2200000  84.7679408 126.0699408  47.1460000
  83.8289408 126.0299408  46.9640000  85.1819408 125.7409408  46.3480000
  65.1569408 131.4689408  45.1180000  64.3929408 131.0489408  45.5120000
  65.9069408 131.0229408  45.5130000  76.3049408 137.8459408  48.6500000
  76.4699408 138.5339408  48.0040000  76.6669408 137.0539408  48.2540000
  71.4229408 121.4139408  52.3640000  71.7979408 121.2949408  53.2370000
  72.1729408 121.6199408  51.8060000  64.3739408 122.0349408  52.5920000
  65.0449408 122.5869408  52.9950000  63.7539408 122.6539408  52.2080000
  67.8019408 136.5439408  37.0640000  67.6149408 135.6139408  37.1890000
  67.8329408 136.9049408  37.9500000  69.5459408 134.8449408  57.9910000
  69.9689408 135.6099408  57.6000000  69.0599408 135.1949408  58.7380000
  61.7749408 120.6259408  58.9360000  62.5749408 121.0719408  59.2140000
  61.1079408 121.3129408  58.9280000  72.7309408 132.2139408  48.9580000
  72.2289408 131.4239408  48.7610000  72.6519408 132.7509408  48.1690000
  63.0389408 147.9559408  58.5700000  63.2659408 147.7619408  57.6600000
  62.9049408 148.9029408  58.5870000  68.8229408 139.2789408  58.8730000
  69.0599408 138.7649408  59.6450000  68.2279408 139.9509408  59.2050000
  70.8119408 124.5099408  54.7060000  69.9129408 124.5729408  55.0290000
  70.7219408 124.4639408  53.7540000  68.1589408 131.4079408  59.5170000
  69.1069408 131.5379408  59.5250000  67.9899408 130.8219408  60.2550000
  67.4109408 128.2469408  52.5390000  67.0039408 127.3889408  52.6570000
  66.8979408 128.6629408  51.8460000  65.9589408 122.4859408  59.6520000
  65.4029408 122.4139408  60.4270000  65.4749408 122.0279408  58.9650000
  78.8269408 123.5309408  52.3500000  78.8589408 122.6169408  52.6340000
  79.3369408 123.5479408  51.5400000  73.0339408 134.4019408  33.2410000
  73.4299408 134.6769408  32.4150000  72.6019408 133.5729408  33.0360000
  74.6579408 121.6439408  54.3280000  75.2989408 121.5509408  55.0330000
  73.8909408 122.0299408  54.7510000  69.2199408 130.8319408  50.8010000
  68.2959408 130.9889408  50.6070000  69.2279408 130.5439408  51.7140000
  68.1889408 137.1529408  53.5900000  69.0689408 137.0679408  53.9560000
  67.9749408 138.0809408  53.6910000  67.2109408 128.0059408  35.3860000
  66.6419408 128.7579408  35.5510000  67.9689408 128.1489408  35.9520000
  90.1159408 128.1649408  41.4220000  90.1929408 127.2509408  41.1470000
  89.2939408 128.4639408  41.0340000  81.0649408 129.6399408  32.0140000
  81.5329408 129.0169408  32.5690000  81.5449408 129.6309408  31.1850000
  64.8949408 138.8529408  36.4910000  65.2919408 139.6979408  36.7040000
  65.4089408 138.5259408  35.7530000  60.8779408 149.1329408  31.2170000
  61.1779408 149.6449408  30.4660000  61.0379408 148.2229408  30.9670000
  66.9089408 124.5699408  45.4710000  66.4269408 125.1219408  44.8560000
  66.2819408 124.3849408  46.1700000  75.2509408 128.2789408  55.3330000
  74.5369408 127.6459408  55.4040000  75.7219408 128.2039408  56.1630000
  76.1519408 136.8349408  36.9130000  75.4469408 136.5409408  36.3350000
  75.7099408 137.0769408  37.7270000  61.6169408 129.6609408  55.2060000
  62.3259408 129.5369408  55.8370000  62.0529408 129.9679408  54.4120000
  75.4429408 120.1609408  43.2290000  76.1079408 119.5109408  43.4580000
  75.5879408 120.8799408  43.8430000  84.0269408 139.3799408  51.4100000
  84.2849408 138.4959408  51.6720000  83.1719408 139.5119408  51.8210000
  74.3959408 138.1949408  40.7400000  74.3709408 138.1429408  41.6950000
  74.2869408 137.2889408  40.4480000  65.1149408 124.0059408  56.8730000
  64.1869408 124.1409408  56.6820000  65.3489408 124.7299408  57.4530000
  64.5679408 132.7609408  53.3450000  64.5269408 133.7069408  53.4870000
  64.8839408 132.6679408  52.4460000  81.5419408 122.2789408  54.3060000
  81.1949408 122.1159408  53.4290000  81.4429408 121.4439408  54.7630000
  74.6329408 143.1429408  40.1660000  74.8209408 143.6079408  39.3500000
  74.7559408 142.2189408  39.9490000  75.3159408 132.0549408  46.3340000
  74.9349408 132.8129408  46.7780000  76.1729408 131.9419408  46.7450000
  82.2929408 137.8109408  53.8080000  82.1829408 137.0259408  54.3450000
  82.7159408 138.4419408  54.3890000  69.7159408 137.2639408  30.6440000
  70.4809408 136.8889408  30.2080000  70.0779408 137.7609408  31.3780000
  69.6429408 147.8269408  54.9720000  69.4569408 147.5769408  54.0670000
  70.3899408 148.4219408  54.9080000  67.2109408 131.8149408  54.3940000
  66.3699408 132.1359408  54.0660000  67.5599408 132.5409408  54.9100000
  60.1669408 128.8079408  50.3710000  59.8829408 128.0049408  50.8070000
  59.9809408 129.5029408  51.0020000  71.3649408 129.9299408  48.7550000
  70.7509408 129.2719408  48.4300000  71.2129408 129.9549408  49.7000000
  74.3869408 140.9349408  31.0510000  73.5169408 141.2199408  30.7720000
  74.8489408 140.7409408  30.2360000  70.7769408 129.9669408  45.3550000
  71.7099408 130.1599408  45.2610000  70.7469408 129.1889408  45.9110000
  63.5569408 127.1909408  56.0440000  64.3569408 126.6719408  56.1280000
  63.4109408 127.2549408  55.1000000  79.8279408 135.7489408  43.0870000
  80.5869408 135.7009408  43.6680000  79.2939408 134.9909408  43.3260000
  60.9909408 134.1799408  59.6390000  61.5389408 134.9439408  59.4570000
  60.9489408 134.1369408  60.5940000  71.3459408 133.1939408  58.8840000
  70.7059408 133.7409408  58.4290000  71.9039408 132.8469408  58.1880000
  88.4329408 121.3169408  47.7720000  88.3759408 120.3929408  48.0160000
  88.3789408 121.7879408  48.6040000  76.9629408 136.6139408  52.6300000
  76.8069408 137.5369408  52.8310000  77.8629408 136.5879408  52.3060000
  86.9299408 131.9079408  31.8610000  86.9209408 132.4829408  32.6270000
  87.6339408 131.2839408  32.0360000  60.8749408 123.4179408  53.9600000
  60.5559408 122.5409408  53.7490000  61.6379408 123.5389408  53.3940000
  73.8929408 139.7199408  47.2500000  73.8199408 140.5249408  46.7370000
  74.7049408 139.3139408  46.9450000  70.5189408 127.1779408  45.9270000
  70.5439408 126.3239408  46.3590000  70.1409408 126.9999408  45.0660000
  75.9109408 147.6449408  50.9300000  75.4609408 146.9469408  50.4540000
  75.2979408 147.8989408  51.6190000  75.5579408 124.1889408  56.1150000
  74.8629408 124.8469408  56.1260000  75.7909408 124.1009408  55.1910000
  69.3779408 128.0839408  58.2570000  68.8019408 128.1769408  57.4980000
  70.1869408 128.5259408  58.0000000  67.9469408 127.0969408  49.7360000
  67.9239408 126.1409408  49.7090000  68.7869408 127.3059408  50.1460000
  76.8989408 149.9439408  35.6780000  76.7499408 149.2089408  36.2740000
  76.6159408 149.6199408  34.8230000  69.8299408 147.2289408  35.4010000
  68.9329408 147.4469408  35.1470000  70.3679408 147.5429408  34.6740000
  78.4289408 149.3959408  58.3290000  77.9429408 148.5779408  58.2260000
  78.7299408 149.3839408  59.2380000  61.1219408 126.0539408  39.6410000
  60.6489408 126.3209408  38.8530000  61.9209408 126.5809408  39.6320000
  71.1519408 142.9069408  50.7830000  71.1849408 141.9589408  50.9060000
  70.5209408 143.0349408  50.0740000  71.0869408 145.7069408  37.3250000
  70.8939408 146.1889408  38.1280000  70.7599408 146.2699408  36.6230000
  62.6749408 138.7829408  40.9760000  63.1839408 139.3299408  41.5740000
  63.0549408 138.9529408  40.1140000  73.9669408 135.5319408  35.7910000
  74.1179408 134.5939408  35.6770000  73.3829408 135.7699408  35.0710000
  62.1679408 124.6769408  42.0900000  61.6919408 125.0179408  41.3330000
  61.8439408 125.1909408  42.8290000  69.7219408 148.0699408  38.6160000
  69.4219408 148.0619408  37.7080000  69.1469408 148.6979408  39.0530000
  88.0529408 145.8899408  42.2050000  88.2489408 146.7309408  42.6180000
  87.0989408 145.8779408  42.1250000  64.9999408 149.5199408  48.2440000
  65.1339408 149.6689408  49.1800000  64.6149408 150.3359408  47.9240000
  70.5059408 139.8669408  36.1100000  69.8559408 139.5139408  35.5030000
  69.9949408 140.3779408  36.7380000  63.3269408 144.6049408  49.3680000
  64.2059408 144.2289408  49.3230000  63.4169408 145.4729408  48.9750000
  60.0379408 141.4779408  34.6990000  60.9309408 141.1549408  34.5830000
  59.4899408 140.8369408  34.2450000  75.7609408 145.8819408  34.7460000
  75.6409408 145.0999408  34.2060000  74.9199408 145.9989408  35.1890000
  74.2179408 140.3289408  43.1910000  74.4609408 141.2159408  42.9250000
  75.0449408 139.9189408  43.4450000  77.6079408 141.4719408  51.4500000
  77.1129408 142.1989408  51.8280000  77.2049408 140.6879408  51.8230000
  72.8429408 144.9729408  51.9030000  72.4879408 144.2539408  51.3800000
  73.3269408 145.5089408  51.2750000  64.6779408 142.4899408  46.5850000
  65.2769408 143.2359408  46.6160000  65.2109408 141.7439408  46.8610000
  65.7979408 141.3969408  36.7650000  66.4539408 141.7799408  37.3470000
  64.9819408 141.4349408  37.2640000  90.0089408 141.9419408  59.8560000
  89.3139408 142.0199408  60.5100000  89.9439408 141.0409408  59.5420000
  77.4849408 147.6719408  37.7400000  76.6389408 147.2889408  37.9700000
  77.8719408 147.0489408  37.1250000  62.3099408 138.7869408  35.5240000
  61.6629408 138.6259408  36.2120000  63.1549408 138.6519408  35.9530000
  74.3059408 148.7819408  37.3720000  74.7559408 148.1469408  37.9280000
  73.9669408 148.2639408  36.6420000  84.3189408 144.7159408  44.1060000
  84.8969408 143.9829408  43.8980000  84.5489408 145.3919408  43.4680000
  66.4959408 138.9039408  32.3800000  65.9039408 139.5189408  31.9470000
  65.9969408 138.0889408  32.4350000  65.8519408 147.3879408  59.9390000
  65.2559408 147.5509408  59.2070000  65.3619408 146.8089408  60.5230000
  76.4369408 139.0669408  51.2430000  76.5039408 138.3559408  50.6060000
  75.6939408 139.5899408  50.9420000  67.2649408 143.0889408  33.3920000
  67.5729408 143.8519408  32.9040000  67.6459408 143.1919408  34.2640000
  70.3759408 143.4779408  47.1180000  69.6279408 143.2069408  47.6500000
  70.5139408 142.7509408  46.5100000  75.4449408 145.1009408  44.0140000
  76.2459408 145.2109408  43.5020000  75.0809408 144.2679408  43.7140000
  69.1669408 125.4379408  35.7480000  68.8509408 125.6709408  34.8750000
  69.4189408 124.5179408  35.6750000  64.2729408 140.1469408  42.5690000
  63.8439408 140.9559408  42.8460000  65.0339408 140.0699408  43.1450000
  63.2469408 135.4839408  33.2100000  63.6359408 136.1419408  32.6340000
  63.7999408 135.4919408  33.9910000  64.1789408 137.7809408  38.9290000
  64.2309408 138.1619408  38.0530000  63.5919408 137.0319408  38.8310000
  71.1639408 149.3629408  44.0990000  71.9599408 149.0219408  44.5070000
  70.8289408 150.0059408  44.7250000  71.2709408 149.4239408  30.7540000
  71.1439408 149.1009408  29.8620000  70.7259408 150.2099408  30.8040000
  70.1639408 134.3359408  47.9330000  69.7059408 133.4989408  47.8530000
  70.9369408 134.2409408  47.3770000  66.7049408 144.8669408  37.0240000
  67.3139408 144.3839408  36.4660000  66.0519408 145.2189408  36.4190000
  60.7809408 137.7779408  33.0700000  61.3749408 137.8329408  33.8190000
  61.3059408 138.0689408  32.3250000  66.9129408 146.0559408  43.0170000
  66.7609408 146.9919408  43.1450000  67.8609408 145.9539408  43.1010000
  69.9689408 145.5049408  41.5150000  70.0609408 146.2039408  42.1630000
  69.5309408 145.9229408  40.7730000  60.6149408 134.7429408  32.4330000
  59.9859408 135.4539408  32.5520000  61.4659408 135.1429408  32.6100000
  75.8529408 143.8829408  37.9390000  75.9139408 143.7729408  36.9900000
  76.7569408 144.0099408  38.2250000  67.6779408 135.6369408  48.2270000
  67.3809408 135.6059408  49.1360000  68.4549408 135.0779408  48.2080000
  64.3649408 142.5619408  40.9050000  63.8259408 143.0119408  41.5560000
  65.0559408 143.1889408  40.6910000  71.6299408 143.2589408  41.2250000
  71.9139408 143.2529408  40.3110000  70.9499408 143.9319408  41.2610000
  63.3079408 142.3489408  44.1740000  63.6449408 143.1049408  43.6930000
  63.8179408 142.3319408  44.9840000  80.0859408 123.0319408  31.4180000
  80.4329408 122.3479408  30.8450000  79.2249408 122.7079408  31.6830000
  88.1769408 122.4219408  50.1510000  87.3749408 122.2089408  50.6290000
  88.4289408 123.2859408  50.4760000  79.2209408 148.9019408  39.3070000
  78.6819408 149.2899408  39.9960000  78.5979408 148.6619408  38.6210000
  60.9919408 119.9949408  55.7370000  61.7769408 120.0659408  55.1940000
  61.2419408 120.3889408  56.5730000  60.7819408 136.6869408  45.9170000
  60.1779408 136.2529408  46.5200000  60.3069408 137.4619408  45.6180000
  66.7389408 144.1779408  39.9850000  66.8389408 145.0859408  40.2700000
  66.8689408 144.2079408  39.0370000  70.4329408 121.4439408  45.7220000
  70.5989408 121.4719408  46.6650000  70.7079408 122.3039408  45.4050000
  71.3089408 139.2199408  55.3400000  72.0399408 139.3309408  54.7320000
  71.4799408 139.8519408  56.0380000  63.3309408 139.3729408  48.2010000
  62.4419408 139.5659408  48.5000000  63.8949408 139.6769408  48.9110000
  86.3379408 128.5209408  44.7070000  85.9319408 129.3879408  44.7270000
  85.5999408 127.9109408  44.7000000  63.1059408 141.9459408  38.1800000
  63.4189408 142.7029408  38.6760000  62.1519408 142.0229408  38.2010000
  75.4369408 143.2539408  50.0090000  76.0059408 143.1119408  49.2530000
  75.0009408 142.4129408  50.1430000  67.0619408 141.4499408  39.2770000
  67.2629408 142.2119408  39.8210000  66.5489408 140.8769408  39.8470000
  72.4839408 146.0199408  59.2340000  72.1589408 145.9759408  60.1330000
  71.7009408 146.1619408  58.7020000  72.0659408 148.8869408  39.7040000
  71.2279408 148.5389408  39.3980000  72.5209408 149.1529408  38.9050000
  71.2699408 146.0949408  46.5260000  71.8939408 146.0249408  45.8040000
  71.2699408 145.2259408  46.9290000  70.8659408 138.4719408  32.7640000
  70.6719408 139.4039408  32.8690000  71.5619408 138.2989408  33.3990000
  69.4209408 141.4549408  37.9740000  68.8169408 141.4819408  38.7160000
  70.2109408 141.8929408  38.2920000  88.8549408 143.9129408  40.4620000
  88.1329408 143.2899408  40.3720000  88.5459408 144.5469408  41.1090000
  69.8059408 135.8759408  51.7940000  68.8959408 136.1509408  51.9020000
  69.7489408 134.9669408  51.5000000  67.9939408 141.3219408  44.6600000
  68.8919408 141.3319408  44.9910000  67.9779408 142.0019408  43.9870000
  85.4639408 145.1709408  38.5830000  84.5769408 145.4189408  38.3240000
  85.9009408 144.9499408  37.7600000  84.4759408 140.8279408  49.0240000
  85.3199408 141.0919408  48.6570000  84.7019408 140.2359408  49.7420000
  68.2409408 139.7249408  55.2630000  68.0479408 139.1849408  56.0300000
  69.1959408 139.7239408  55.2030000  72.9509408 121.3049408  42.5350000
  73.5739408 120.6049408  42.7320000  72.1069408 120.9639408  42.8300000
  89.8429408 146.8959408  38.9490000  89.2369408 146.1979408  38.6960000
  90.4319408 146.4839408  39.5810000  73.2739408 146.0209408  35.5640000
  73.0779408 145.8549408  36.4860000  72.5129408 145.6839408  35.0920000
  73.9679408 143.1959408  42.7510000  73.0609408 143.1179408  42.4530000
  74.4749408 143.3119408  41.9480000  67.9659408 143.2009408  54.6000000
  68.6309408 142.7009408  54.1270000  67.9549408 144.0549408  54.1660000
  88.8189408 148.9629408  49.5480000  89.3499408 148.7979408  50.3270000
  87.9169408 148.8389408  49.8420000  67.1999408 122.1849408  49.7970000
  67.7519408 121.4189408  49.6400000  66.4489408 121.8439408  50.2840000
  76.6659408 132.2829408  31.1970000  76.1439408 133.0379408  30.9240000
  76.2319408 131.9649408  31.9890000  71.4439408 135.8639408  53.9440000
  72.0879408 136.3889408  53.4680000  70.7859408 135.6379408  53.2870000
  74.5009408 132.8519408  35.8720000  74.3729408 132.6739408  36.8040000
  73.6179408 132.8409408  35.5020000  70.8959408 139.7499408  39.9370000
  70.1039408 139.8069408  40.4710000  71.6099408 139.9329408  40.5480000
  79.0259408 134.6979408  35.6060000  79.1789408 135.5409408  36.0320000
  78.8219408 134.0999408  36.3250000  66.7689408 148.4729408  44.2330000
  67.3599408 149.2059408  44.4070000  65.9639408 148.6979408  44.6990000
  69.7699408 142.6009408  56.6800000  69.2829408 142.6389408  55.8560000
  69.7329408 143.4939408  57.0220000  87.3529408 120.3099408  42.8330000
  87.5099408 119.6729408  43.5300000  87.9369408 121.0399408  43.0390000
  72.1129408 138.3489408  37.7370000  71.7449408 138.5769408  38.5910000
  71.5649408 138.8179408  37.1070000  84.6629408 139.5749408  42.4850000
  84.9049408 138.8659408  43.0800000  84.1909408 139.1409408  41.7740000
  61.4539408 149.7109408  45.8930000  61.4329408 150.6619408  46.0040000
  62.2849408 149.5399408  45.4500000  66.8329408 140.5419408  47.8900000
  67.4509408 139.8449408  47.6710000  66.2749408 140.1639408  48.5700000
  85.2199408 134.8659408  31.3530000  85.3179408 134.0859408  30.8060000
  84.4369408 135.3009408  31.0120000  78.8679408 147.6099408  33.3490000
  79.7269408 147.3279408  33.6620000  78.2529408 147.2769408  34.0020000
  71.2019408 148.7629408  33.4690000  71.2119408 149.5939408  33.9450000
  71.6049408 148.9659408  32.6240000  66.1329408 143.5059408  50.1000000
  66.3269408 143.2889408  49.1880000  66.9599408 143.8419408  50.4480000
  70.2109408 148.4339408  41.9620000  71.0079408 148.2959408  41.4500000
  70.5229408 148.6039408  42.8510000  77.3879408 142.3639408  57.4260000
  77.6389408 142.8729408  58.1970000  78.1209408 142.4709408  56.8190000
  61.6809408 148.4499408  37.5820000  62.3499408 147.9409408  37.1260000
  60.8959408 147.9039408  37.5440000  85.9239408 142.7609408  43.2040000
  85.7279408 142.7439408  42.2670000  86.0819408 141.8459408  43.4340000
  79.3099408 146.6769408  44.0320000  79.6109408 146.8749408  44.9190000
  79.3619408 145.7229408  43.9680000  63.3539408 144.7089408  39.0660000
  63.7559408 145.5449408  39.3010000  62.5179408 144.9489408  38.6650000
  61.4129408 146.7549408  30.3960000  62.1889408 147.0679408  29.9310000
  61.2349408 145.8959408  30.0140000  89.6089408 147.8679408  45.3230000
  90.1049408 147.1339408  44.9590000  90.2649408 148.5469408  45.4810000
  82.3659408 134.6299408  38.6880000  81.7399408 134.6659408  39.4110000
  83.1379408 135.0919408  39.0160000  61.5119408 139.0599408  43.6060000
  60.8219408 139.4449408  43.0660000  62.0049408 138.5029408  43.0030000
  63.9449408 146.8669408  48.1460000  63.7629408 146.8199408  47.2080000
  64.4529408 147.6719408  48.2510000  73.2799408 142.0519408  45.6120000
  72.3279408 141.9589408  45.6370000  73.5199408 141.8259408  44.7140000
  72.9559408 141.3659408  36.3640000  73.4859408 141.8059408  35.6990000
  72.4029408 140.7609408  35.8690000  63.4409408 126.1809408  31.9050000
  64.0029408 126.8479408  31.5100000  63.9759408 125.7989408  32.6010000
  77.0119408 143.5979408  30.0990000  77.4669408 144.3679408  30.4400000
  76.1409408 143.9179408  29.8630000  67.1949408 142.4749408  58.1130000
  66.6079408 142.3649408  57.3650000  68.0739408 142.3999408  57.7400000
  78.2589408 132.5979408  37.4360000  77.7069408 131.9699408  36.9700000
  77.6589408 133.0499408  38.0290000  60.1369408 123.5589408  35.8370000
  59.9919408 122.6449408  35.5950000  60.0729408 123.5669408  36.7920000
  75.3399408 140.8529408  58.1340000  74.7079408 141.5289408  57.8920000
  76.1799408 141.1839408  57.8140000  86.3759408 143.1479408  52.1470000
  85.9069408 143.8409408  51.6830000  87.2419408 143.1299408  51.7400000
  68.6959408 124.9359408  56.2190000  68.5659408 124.8349408  57.1620000
  67.9669408 125.4869408  55.9330000  65.0549408 120.9999408  57.6170000
  65.2369408 121.8089408  57.1400000  64.9239408 120.3429408  56.9330000
  72.6159408 142.0489408  54.5270000  72.7129408 141.7699408  55.4380000
  73.1399408 141.4229408  54.0270000  64.7479408 146.4299408  32.0810000
  64.8309408 145.7089408  32.7050000  63.9279408 146.8609408  32.3190000
  69.2759408 146.4629408  44.7030000  69.7309408 146.2569408  45.5190000
  69.1089408 147.4049408  44.7520000  83.3719408 149.3539408  46.9710000
  83.3079408 148.3989408  46.9860000  82.9949408 149.6059408  46.1290000
  76.2559408 143.4489408  52.4580000  75.9049408 143.5529408  51.5740000
  75.4959408 143.5559408  53.0320000  66.9949408 135.9949408  50.7340000
  66.4209408 135.7369408  51.4560000  66.9939408 136.9519408  50.7580000
  76.4109408 147.9309408  46.0400000  76.7929408 148.4529408  46.7440000
  76.9819408 148.0879408  45.2870000  74.1419408 144.1589408  54.0840000
  73.6309408 143.3779408  54.2940000  73.5819408 144.6599408  53.4910000
  73.5379408 136.9969408  52.3460000  74.1009408 136.3869408  52.8230000
  73.4289408 136.5979408  51.4830000  73.4829408 139.4799408  53.5240000
  73.6019408 138.6709408  53.0260000  74.1959408 139.4769408  54.1620000
  65.5179408 140.8639408  30.6340000  64.6129408 140.9029408  30.3240000
  65.8689408 141.7369408  30.4600000  63.9199408 143.7329408  57.9040000
  63.7749408 142.7969408  57.7640000  64.6069408 143.7729408  58.5690000
  83.3409408 145.3679408  56.2690000  83.8739408 145.7849408  55.5910000
  82.6439408 145.9989408  56.4470000  81.0999408 147.1969408  56.2780000
  80.7519408 147.3389408  55.3980000  81.3499408 148.0699408  56.5810000
  74.6979408 145.7839408  49.6430000  74.8279408 145.7939408  48.6940000
  74.6369408 144.8559408  49.8670000  71.6579408 149.4879408  55.1230000
  71.5199408 150.2759408  55.6490000  72.5939408 149.3049408  55.2060000
  65.6269408 145.5319408  52.0670000  66.1349408 145.9269408  51.3580000
  65.2669408 144.7309408  51.6870000  68.4599408 122.5539408  54.9290000
  68.0919408 121.8119408  55.4080000  68.4689408 123.2689408  55.5650000
  63.5699408 140.9729408  57.9310000  62.6959408 140.8599408  57.5580000
  64.1639408 140.6609408  57.2500000  84.5209408 137.0009408  52.3890000
  85.1209408 136.3069408  52.6620000  83.6929408 136.7869408  52.8180000
  71.6979408 140.0789408  59.7730000  70.8099408 139.8989408  59.4640000
  72.0089408 139.2409408  60.1130000  70.6369408 141.0749408  45.7480000
  71.0509408 140.3259408  46.1760000  70.8889408 140.9959408  44.8280000
  67.8009408 137.6069408  56.9660000  67.9509408 138.0929408  57.7770000
  68.6709408 137.3129408  56.6970000  74.6939408 147.6009408  59.4540000
  73.7959408 147.3609408  59.6810000  74.6029408 148.1929408  58.7070000
  74.6019408 148.8039408  53.5100000  75.1489408 148.3629408  54.1610000
  74.6489408 149.7299408  53.7450000  68.0119408 145.6129408  59.1090000
  67.3469408 145.9979408  59.6800000  67.5689408 145.4959408  58.2690000
  77.2359408 145.8399408  54.2300000  77.9919408 145.7569408  53.6490000
  76.6439408 145.1399408  53.9550000  76.3829408 145.0279408  46.5230000
  75.9809408 144.9789408  45.6560000  76.6939408 145.9299408  46.5930000
  59.8979408 145.6919408  52.9550000  59.7849408 144.8959408  53.4740000
  60.8379408 145.7319408  52.7780000  68.7329408 145.2859408  32.7840000
  69.4529408 145.3559408  32.1580000  68.2929408 146.1349408  32.7390000
  86.7709408 123.6649408  52.7270000  86.7729408 122.8369408  53.2070000
  87.3549408 124.2339408  53.2270000  65.4859408 137.0279408  55.4590000
  65.3769408 136.1209408  55.7470000  66.3439408 137.2849408  55.7970000
  69.9189408 123.5539408  51.8240000  69.1149408 123.4609408  52.3350000
  70.5089408 122.8899408  52.1800000  71.3379408 148.9519408  57.8980000
  70.3879408 148.9459408  57.7800000  71.6909408 148.7969408  57.0220000
  68.4839408 132.6569408  42.7750000  68.7579408 133.2109408  42.0450000
  69.2489408 132.1129408  42.9640000  64.8689408 142.0059408  34.4930000
  65.4839408 142.3369408  33.8380000  65.3879408 141.9349408  35.2950000
  61.1839408 143.8679408  32.2820000  61.7039408 143.3719408  31.6500000
  61.6219408 143.7219408  33.1200000  61.2759408 140.9209408  52.3260000
  61.5259408 140.2529408  51.6880000  61.9619408 141.5849408  52.2600000
  67.4129408 146.2019408  50.0570000  67.4249408 146.6489408  49.2110000
  68.2419408 146.4469408  50.4690000  70.8449408 122.1909408  58.1290000
  69.9649408 121.9919408  57.8090000  70.7209408 122.4099408  59.0520000
  72.1609408 141.0939408  57.1720000  71.3539408 141.5889408  57.0280000
  72.4389408 141.3399408  58.0540000  81.6459408 145.8579408  49.2480000
  81.8839408 145.4889408  48.3980000  81.1379408 145.1669408  49.6750000
  61.9099408 146.0429408  56.4380000  61.0299408 146.3809408  56.2760000
  61.8099408 145.4669408  57.1960000  86.5009408 143.4099408  33.8900000
  87.2679408 143.2959408  33.3290000  86.1529408 144.2679408  33.6490000
  72.1069408 148.3369408  52.1520000  72.8629408 148.3479408  52.7390000
  71.9139408 149.2609408  51.9920000  66.9049408 149.6589408  54.4020000
  67.4049408 149.1249408  55.0190000  67.5369408 149.8999408  53.7250000
  75.8789408 122.1039408  51.6990000  75.5149408 121.9559408  52.5720000
  76.7829408 121.7959408  51.7610000  68.8949408 141.6709408  49.8570000
  68.2309408 141.5909408  49.1720000  68.9859408 140.7849408  50.2080000
  79.3409408 139.3989408  50.3370000  79.0289408 139.1119408  49.4790000
  78.5439408 139.5879408  50.8320000  74.5349408 123.3569408  58.7370000
  74.1719408 122.4879408  58.5610000  75.0539408 123.5609408  57.9590000
  77.1019408 135.7249408  55.9070000  77.7749408 136.4049408  55.8650000
  76.2939408 136.1989408  56.1020000  73.0649408 121.5539408  50.0000000
  73.9649408 121.6039408  50.3230000  72.9399408 120.6309408  49.7800000
  68.2529408 121.2669408  58.1430000  67.5959408 121.4079408  58.8250000
  68.1889408 120.3329408  57.9390000  70.1359408 142.0139408  53.1660000
  70.2959408 142.4989408  52.3560000  70.9959408 141.9489408  53.5810000
  78.4869408 128.0279408  31.6070000  79.1999408 128.3819408  32.1380000
  78.0509408 128.7999408  31.2450000  75.1319408 137.2609408  56.3960000
  75.2409408 137.6919408  57.2440000  74.5449408 136.5269408  56.5740000
  67.2789408 146.4109408  56.2950000  66.3539408 146.2849408  56.0820000
  67.7199408 146.4259408  55.4460000  74.4529408 140.9099408  33.7780000
  74.3679408 140.7669408  32.8350000  75.0229408 140.2019408  34.0770000
  67.1399408 147.5469408  47.6840000  66.8289408 147.2759408  46.8200000
  66.5409408 148.2459408  47.9460000  85.0939408 123.0129408  55.4040000
  84.7599408 122.6939408  54.5660000  85.6369408 122.2969408  55.7340000
  75.7979408 148.7229408  33.2530000  75.6619408 147.7969408  33.0530000
  75.1299408 149.1799408  32.7420000  68.0329408 149.1679408  40.5370000
  68.6119408 148.8459408  41.2270000  67.5109408 149.8489408  40.9610000
  72.8329408 136.8609408  43.8650000  72.4649408 135.9809408  43.9370000
  72.1939408 137.3459408  43.3420000  68.4229408 148.5869408  57.7970000
  68.0969408 148.0029408  57.1120000  68.0209408 148.2599408  58.6020000
  73.1219408 135.2349408  56.3590000  72.9999408 134.2859408  56.3360000
  73.2029408 135.4879408  55.4390000  65.5019408 120.1759408  50.8970000
  65.1519408 120.8029408  51.5300000  65.3639408 119.3209408  51.3060000
  74.6709408 127.7959408  35.3550000  75.3629408 127.6749408  34.7050000
  74.3999408 126.9069408  35.5840000  72.2429408 126.3459408  37.8770000
  73.0639408 125.9189408  37.6340000  71.5769408 125.9019408  37.3520000
  70.7739408 126.2109408  59.9660000  71.1209408 126.8889408  60.5450000
  70.1539408 126.6719408  59.4000000  84.9609408 135.1169408  36.4150000
  84.0719408 135.3439408  36.1410000  85.4919408 135.8699408  36.1570000
  79.3769408 127.5459408  42.7920000  79.5639408 127.9789408  41.9590000
  78.9799408 128.2279408  43.3340000  89.9389408 132.9329408  50.1570000
  89.2409408 133.5489408  49.9330000  89.5489408 132.0699408  50.0180000
  83.4369408 128.0999408  44.6000000  83.0629408 128.4679408  43.7990000
  83.0709408 127.2169408  44.6520000  87.4789408 123.9939408  40.6530000
  87.3369408 124.2939408  39.7560000  87.7139408 123.0699408  40.5640000
  83.8419408 127.9109408  41.1330000  83.2649408 128.4849408  40.6300000
  84.5029408 127.6239408  40.5030000  84.1399408 121.3499408  40.9420000
  83.2239408 121.4689408  41.1920000  84.1099408 120.7419408  40.2040000
  82.8249408 141.8459408  59.9020000  83.1099408 141.1609408  60.5080000
  83.3979408 141.7459408  59.1420000  60.0609408 126.7279408  47.5830000
  60.7789408 127.3319408  47.7720000  59.7179408 127.0209408  46.7390000
  79.3879408 132.0239408  31.7080000  78.4449408 132.1189408  31.5730000
  79.5609408 131.0969408  31.5410000  78.6229408 124.8899408  42.5080000
  79.1929408 124.4829408  41.8550000  78.9969408 125.7609408  42.6440000
  88.2209408 143.3229408  44.8680000  87.5639408 143.4529408  44.1850000
  89.0359408 143.1649408  44.3900000  87.7609408 122.7849408  33.9490000
  88.2159408 122.0179408  33.6010000  87.0409408 122.9349408  33.3370000
  75.8699408 127.0169408  30.6600000  75.2029408 126.8519408  31.3270000
  76.4569408 127.6569408  31.0610000  79.5339408 137.2399408  56.6460000
  80.2919408 136.8729408  56.1910000  79.5379408 136.8119408  57.5020000
  85.9399408 125.4359408  44.7680000  86.1589408 125.8389408  43.9280000
  85.7629408 124.5199408  44.5560000  85.4509408 126.9699408  35.4990000
  84.8859408 126.2069408  35.3780000  85.7639408 127.1789408  34.6180000
  60.4629408 142.8909408  43.2580000  60.2129408 141.9829408  43.0880000
  61.3599408 142.8359408  43.5870000  74.7979408 131.2589408  50.4950000
  74.1209408 131.7319408  50.0110000  75.3779408 131.9449408  50.8280000
  78.4659408 143.8039408  39.1880000  78.8379408 144.6159408  38.8460000
  78.9149408 143.1109408  38.7040000  76.7079408 127.0059408  33.8860000
  77.1969408 127.5149408  33.2390000  76.7849408 126.0999408  33.5860000
  65.6159408 123.9159408  47.9620000  66.1299408 123.4149408  48.5940000
  65.1099408 123.2559408  47.4870000  85.2969408 125.6169408  49.7390000
  86.1719408 125.2819408  49.5430000  84.9219408 125.8239408  48.8830000
  70.5079408 127.1349408  50.9140000  71.3479408 126.7929408  50.6060000
  70.6289408 127.2549408  51.8560000  65.4309408 128.9249408  43.3460000
  64.5449408 128.8439408  43.6980000  65.4069408 129.7229408  42.8170000
  89.5329408 120.6999408  33.3760000  90.1959408 120.7629408  32.6890000
  89.1429408 119.8339408  33.2540000  79.1209408 131.3209408  43.8360000
  78.7309408 131.3989408  42.9650000  78.7629408 132.0599408  44.3270000
  83.4509408 136.6139408  47.9200000  83.0099408 137.2459408  47.3520000
  82.8429408 136.4799408  48.6470000  61.2429408 145.3819408  41.0890000
  61.8839408 144.7989408  40.6820000  60.4409408 144.8619408  41.1370000
  60.5589408 123.4369408  32.1060000  60.9039408 123.9419408  31.3700000
  59.6199408 123.3699408  31.9320000  85.4529408 143.0009408  36.3470000
  86.1639408 142.5919408  36.8410000  85.8259408 143.1649408  35.4810000
  79.8289408 132.1619408  34.8400000  80.2879408 132.3219408  35.6640000
  79.5549408 133.0299408  34.5450000  78.0169408 127.0069408  57.2190000
  77.3259408 126.5609408  57.7080000  78.0999408 126.5049408  56.4080000
  85.5609408 131.1319408  45.4750000  85.1189408 130.5969408  46.1340000
  84.8589408 131.6419408  45.0700000  61.6959408 134.5629408  35.6540000
  61.0739408 134.5129408  34.9270000  61.7619408 133.6639408  35.9750000
  86.7429408 123.6139408  47.8620000  86.4659408 124.0829408  47.0750000
  86.0469408 122.9769408  48.0200000  81.6259408 139.4869408  31.2030000
  82.4039408 139.0829408  31.5860000  81.3859408 140.1789408  31.8190000
  79.8959408 127.7829408  59.2340000  79.4559408 127.5179408  58.4260000
  79.2739408 127.5689408  59.9280000  89.2179408 143.7659408  35.8380000
  89.3659408 144.3189408  35.0710000  89.4309408 142.8809408  35.5410000
  81.2669408 120.7559408  38.5830000  81.3999408 121.0999408  39.4660000
  80.5919408 120.0849408  38.6870000  84.1839408 124.4299408  59.2750000
  83.9199408 125.0219408  58.5710000  83.4349408 124.4179408  59.8720000
  87.0549408 140.3509408  43.5330000  86.2059408 140.0659408  43.1960000
  87.4329408 139.5649408  43.9270000  83.3629408 125.0449408  41.8150000
  83.7649408 125.8809408  41.5770000  84.1039408 124.4649408  41.9930000
  84.9759408 121.0289408  50.1130000  84.6729408 121.3969408  49.2830000
  84.4759408 121.4979408  50.7810000  82.5319408 143.9129408  46.2690000
  83.3199408 143.8259408  46.8050000  82.8589408 144.0669408  45.3830000
  86.3219408 127.4929408  53.9420000  86.3019408 126.7529408  54.5480000
  87.1049408 127.9849408  54.1900000  60.1739408 131.8329408  41.6060000
  60.4409408 131.6049408  42.4960000  60.8999408 132.3529408  41.2630000
  85.7369408 139.1459408  38.1800000  84.8499408 139.1279408  38.5390000
  86.1869408 138.4239408  38.6170000  76.6539408 129.5689408  37.1000000
  76.2859408 129.1019408  36.3490000  77.5579408 129.2609408  37.1550000
  78.3429408 145.7469408  36.0430000  78.8659408 144.9999408  35.7510000
  77.5969408 145.7659408  35.4440000  64.7929408 145.8129408  35.2480000
  64.3529408 146.6369408  35.4600000  64.0799408 145.1949408  35.0880000
  83.2419408 143.1659408  40.4920000  82.9709408 143.7249408  39.7630000
  82.5509408 142.5069408  40.5570000  85.7379408 146.5139408  46.0000000
  85.5399408 145.6189408  45.7260000  84.8859408 146.8929408  46.2160000
  60.0309408 126.3349408  37.2890000  59.4529408 125.8939408  36.6650000
  60.7089408 126.7369408  36.7450000  65.4109408 121.6389408  44.1010000
  66.3529408 121.5459408  43.9540000  65.1199408 122.2449408  43.4200000
  80.9789408 131.3509408  58.1040000  81.4849408 130.7389408  58.6380000
  81.4719408 131.4199408  57.2860000  84.4599408 122.0869408  47.5660000
  84.6979408 122.1839408  46.6440000  83.9199408 121.2969408  47.5930000
  68.5499408 124.3989408  49.4280000  69.1569408 124.0959408  50.1040000
  67.8149408 123.7869408  49.4750000  87.6739408 127.2299408  58.4930000
  88.1929408 128.0039408  58.2730000  87.5139408 126.7999408  57.6530000
  81.2339408 121.7299408  41.0500000  81.0569408 121.7479408  41.9900000
  81.0979408 122.6329408  40.7630000  82.1169408 126.2239408  46.4610000
  81.5759408 126.8179408  46.9810000  81.6809408 126.1839408  45.6100000
  77.0459408 129.7769408  60.0950000  76.9329408 130.7139408  60.2500000
  77.3599408 129.7189408  59.1920000  87.9949408 121.5439408  39.2960000
  87.6689408 120.7739408  39.7610000  87.5859408 121.4939408  38.4320000
  64.1849408 139.2609408  45.5620000  63.2749408 139.4589408  45.3410000
  64.2369408 139.3929408  46.5080000  81.5719408 136.0879408  49.4610000
  81.2589408 136.5549408  50.2350000  82.0279408 135.3219408  49.8100000
  84.5889408 132.8039408  48.0590000  85.3309408 132.2919408  47.7360000
  84.9889408 133.5189408  48.5550000  62.6959408 124.0899408  51.8710000
  62.3059408 123.5869408  51.1560000  62.9999408 124.8979408  51.4560000
  89.8669408 142.4849408  53.7190000  90.5199408 142.0109408  53.2050000
  89.1229408 142.5889408  53.1250000  82.9719408 149.7709408  36.6800000
  82.3179408 150.1079408  37.2920000  83.6439408 149.3789408  37.2390000
  90.0319408 129.3559408  37.3470000  89.0959408 129.2539408  37.5190000
  90.1719408 128.9109408  36.5120000  72.1399408 127.4559408  42.2220000
  73.0799408 127.4309408  42.0430000  71.9669408 126.6499408  42.7080000
  82.2569408 132.3619408  41.4830000  81.7519408 133.1539408  41.2990000
  82.2079408 131.8529408  40.6740000  87.9939408 128.9349408  48.7130000
  88.8849408 128.7869408  49.0320000  87.4419408 128.4079408  49.2910000
  85.9349408 141.0989408  58.9360000  85.4299408 141.0179408  58.1280000
  86.4369408 141.9069408  58.8260000  62.6369408 128.9269408  38.6340000
  63.0599408 129.1289408  39.4690000  61.7709408 129.3279408  38.7010000
  61.9669408 128.2519408  48.4270000  62.8179408 128.6559408  48.5950000
  61.4089408 128.5619408  49.1400000  87.5039408 125.9579408  42.6760000
  87.6349408 125.1329408  42.2080000  87.4329408 126.6169408  41.9850000
  80.1629408 123.2489408  37.1740000  80.7889408 122.6829408  37.6270000
  79.4289408 123.3299408  37.7820000  76.8479408 149.6619408  40.6200000
  76.3209408 149.0759408  41.1630000  76.2789408 149.8849408  39.8840000
  65.8869408 130.2809408  35.3640000  65.6359408 130.8369408  36.1020000
  65.8729408 130.8659408  34.6070000  82.0509408 147.8479408  51.3780000
  82.2919408 147.3129408  50.6220000  82.4079408 148.7149408  51.1820000
  86.0049408 148.4509408  50.5770000  85.3879408 147.8689408  50.1320000
  85.6789408 149.3319408  50.3920000  75.9519408 135.9449408  30.6750000
  75.0699408 135.6069408  30.8280000  76.3909408 135.2529408  30.1800000
  82.1649408 127.7679408  38.6350000  83.0789408 127.4839408  38.6030000
  82.1279408 128.5239408  38.0490000  84.3869408 130.8979408  37.2380000
  84.6949408 131.3449408  38.0260000  85.0989408 131.0059408  36.6070000
  80.4669408 147.5979408  46.5020000  80.0149408 148.4079408  46.7400000
  79.9129408 146.9009408  46.8520000  77.1799408 144.4859408  41.5940000
  77.1339408 144.0919408  40.7230000  77.8769408 145.1389408  41.5260000
  87.1109408 127.9229408  40.7590000  86.6699408 128.6599408  41.1820000
  87.2859408 128.2279408  39.8680000  84.4309408 128.2329408  30.1660000
  84.9999408 128.8329408  29.6840000  84.9499408 127.9689408  30.9260000
  87.6649408 137.8339408  50.4340000  87.0099408 137.9209408  51.1270000
  87.7929408 138.7259408  50.1110000  80.4459408 125.7249408  35.9510000
  80.6899408 124.9389408  36.4390000  81.2809408 126.0999408  35.6680000
  64.0989408 137.2339408  50.9040000  63.5579408 137.6299408  50.2210000
  64.7849408 137.8809408  51.0720000  83.0409408 145.6989408  37.7480000
  82.2169408 146.1149408  37.4950000  83.0589408 144.8799408  37.2530000
  75.0709408 123.1099408  41.9730000  75.9309408 122.7019408  41.8700000
  74.5769408 122.4959408  42.5170000  61.2549408 126.8109408  44.1630000
  60.3669408 126.7379408  44.5100000  61.5479408 127.6809408  44.4330000
  61.2039408 138.3319408  38.1590000  61.7869408 138.4599408  38.9080000
  60.4139408 137.9419408  38.5330000  70.8509408 138.0429408  50.5640000
  71.5169408 137.8769408  49.8970000  70.6929408 137.1879408  50.9640000
  85.3289408 133.5029408  41.5810000  85.0329408 134.2309408  42.1270000
  86.1189408 133.1829408  42.0170000  87.1119408 147.8559408  44.3000000
  86.6299408 147.3489408  44.9530000  88.0099408 147.8809408  44.6300000
  84.7879408 122.1149408  35.8990000  84.1839408 121.3719408  35.9120000
  85.6579408 121.7159408  35.9040000  79.4179408 135.1679408  46.0930000
  80.2329408 134.6729408  46.0060000  79.6999408 136.0539408  46.3210000
  87.7659408 133.5989408  33.8470000  87.7389408 133.8419408  34.7720000
  87.9009408 134.4269408  33.3850000  65.1689408 134.5189408  46.3780000
  65.8409408 134.4369408  47.0540000  64.4199408 134.9079408  46.8290000
  82.8469408 134.3839408  59.2860000  83.0729408 135.2939408  59.4810000
  82.3399408 134.4319408  58.4760000  84.5049408 123.7859408  38.3370000
  84.6659408 123.1259408  37.6630000  85.3689408 123.9629408  38.7110000
  87.8919408 135.9599408  31.8140000  87.0629408 135.4949408  31.6950000
  88.2699408 136.0039408  30.9360000  81.4209408 125.9589408  43.7260000
  80.7449408 126.4539408  43.2630000  82.0389408 125.6999408  43.0420000
  64.4059408 130.8699408  31.0480000  63.6999408 131.4429408  31.3470000
  65.1239408 131.0339408  31.6600000  77.9489408 137.1749408  41.2960000
  77.9059408 136.2389408  41.0990000  78.8179408 137.2979408  41.6800000
  85.4809408 131.9639408  39.4060000  85.1199408 132.5119408  40.1030000
  86.2799408 131.5939408  39.7810000  87.2379408 124.9699408  38.0610000
  87.3909408 125.8909408  38.2740000  87.5609408 124.8749408  37.1650000
  84.1389408 128.9709408  54.3760000  83.4629408 128.4299408  53.9690000
  84.9209408 128.4189408  54.3760000  76.7859408 138.4209408  31.6810000
  76.7219408 137.5299408  31.3370000  77.4129408 138.8559408  31.1040000
  82.8489408 133.5719408  49.9600000  83.5609408 133.2709408  49.3950000
  82.1069408 133.0129408  49.7290000  83.2589408 120.4689408  44.2250000
  83.7039408 119.7619408  43.7580000  83.9489408 121.1049408  44.4120000
  60.9149408 132.1979408  33.5130000  60.7669408 132.8599408  32.8380000
  60.2449408 131.5339408  33.3490000  76.2619408 125.6629408  41.8050000
  77.1559408 125.3529408  41.9450000  75.7269408 124.8699408  41.8260000
  85.2609408 122.5219408  45.1500000  86.1599408 122.1979408  45.2140000
  85.1129408 122.6349408  44.2110000  86.0369408 129.7699408  42.4210000
  86.3529408 129.1019408  43.0300000  85.0999408 129.8379408  42.6050000
  83.0209408 128.4339408  33.5050000  83.2149408 129.3699408  33.4500000
  83.4379408 128.1499408  34.3190000  87.9889408 129.2129408  55.4190000
  88.5799408 129.2639408  56.1700000  87.4759408 130.0199408  55.4620000
  89.4079408 140.4649408  42.4830000  88.5159408 140.4729408  42.8300000
  89.2959408 140.4509408  41.5330000  79.9099408 128.3669408  40.0660000
  79.9099408 129.2509408  39.6990000  80.6139408 127.9149408  39.6030000
  82.6919408 131.3699408  56.1520000  82.7639408 130.5559408  55.6530000
  83.5839408 131.5479408  56.4510000  82.3429408 137.8229408  43.7280000
  82.4789408 138.5569408  44.3260000  81.4959408 137.9999408  43.3180000
  78.5539408 138.9259408  54.6820000  78.7939408 138.2999408  55.3660000
  79.3529408 139.4279408  54.5250000  60.9789408 131.7839408  36.4660000
  60.8059408 131.5689408  35.5490000  60.8379408 130.9619408  36.9360000
  78.5449408 126.2349408  38.9460000  78.6869408 126.3049408  38.0020000
  78.8589408 127.0669408  39.2990000  77.5829408 122.1169408  41.6990000
  77.5359408 121.9249408  42.6360000  77.4419408 121.2719408  41.2740000
  83.0879408 126.0449408  32.2860000  83.1179408 126.9629408  32.5550000
  82.5769408 126.0479408  31.4770000  79.4299408 149.0179408  30.8690000
  80.3869408 149.0099408  30.8630000  79.1899408 148.4979408  31.6360000
  83.0929408 124.5809408  56.6170000  83.7929408 124.1529408  56.1250000
  82.4559408 124.8409408  55.9520000  89.4029408 141.3029408  46.8030000
  89.1189408 142.1149408  46.3830000  90.2919408 141.4879408  47.1050000
  89.9999408 123.3119408  38.7350000  89.2879408 122.6869408  38.8720000
  89.6239408 124.1599408  38.9690000  86.0629408 126.2019408  32.8730000
  86.7759408 126.4759408  32.2960000  85.4759408 125.7009408  32.3070000
  85.4119408 140.8149408  31.5320000  85.4999408 140.9999408  30.5970000
  86.2239408 140.3649408  31.7650000  88.3659408 125.4669408  49.3010000
  88.8039408 125.9929408  48.6320000  88.0599408 124.6899408  48.8330000
  73.7059408 120.8079408  58.7940000  72.8089408 120.6749408  59.0990000
  74.2449408 120.6919408  59.5770000  80.9419408 124.3839408  47.7550000
  80.5819408 123.9059408  47.0080000  81.5239408 125.0359408  47.3640000
  79.5519408 133.4549408  59.3200000  79.6209408 132.9329408  60.1200000
  79.9389408 132.9039408  58.6400000  89.4049408 129.7769408  31.2160000
  89.7829408 129.6169408  30.3520000  88.8879408 128.9919408  31.4010000
  83.8139408 136.7889408  59.7140000  83.7769408 137.3819408  60.4640000
  84.6549408 136.9789408  59.2980000  62.6029408 136.3849408  57.6050000
  62.3689408 136.0419408  56.7430000  63.5349408 136.1849408  57.6980000
  81.4199408 133.2069408  54.2540000  81.6209408 132.3409408  54.6100000
  81.2789408 133.0559408  53.3200000  84.3839408 136.4509408  56.5200000
  84.4989408 137.3369408  56.1780000  84.0379408 136.5779408  57.4040000
  89.1759408 130.3779408  52.4850000  88.2839408 130.5879408  52.2080000
  89.0939408 130.1619408  53.4140000  87.5159408 131.6489408  48.8270000
  87.5849408 130.6959408  48.7670000  87.6049408 131.8379408  49.7610000
  88.1189408 133.0759408  53.9840000  88.7619408 132.6759408  54.5710000
  87.4529408 133.4369408  54.5690000  60.9759408 133.9229408  56.7960000
  61.2779408 134.0099408  57.7000000  61.7439408 133.6149408  56.3150000
  84.1129408 121.7349408  58.1150000  84.7809408 121.4299408  57.5010000
  84.4059408 122.6089408  58.3730000  81.7639408 133.3609408  32.3840000
  81.7739408 133.7069408  31.4920000  80.9559408 132.8499408  32.4340000
  60.6829408 124.4809408  56.5800000  60.8219408 124.3349408  55.6450000
  60.8769408 125.4089408  56.7100000  88.0309408 145.7699408  30.2010000
  87.6519408 146.3839408  29.5710000  88.7909408 146.2309408  30.5560000
  62.9169408 130.2559408  52.9200000  62.3259408 130.8239408  52.4250000
  63.4999408 130.8599408  53.3800000  81.1939408 124.9999408  54.4080000
  80.3499408 125.2639408  54.7730000  81.2559408 124.0639408  54.5980000
  86.5439408 125.5789408  55.9390000  85.8209408 124.9659408  55.8060000
  87.3229408 125.0939408  55.6660000  88.7599408 148.1839408  33.0480000
  88.8759408 147.2849408  33.3560000  89.4779408 148.3219408  32.4310000
  62.6489408 127.0719408  53.3300000  62.9159408 127.8839408  52.8980000
  62.1039408 126.6239408  52.6820000  82.4329408 144.4709408  30.8190000
  81.6569408 144.3989408  31.3750000  82.5059408 143.6149408  30.3970000
  87.0089408 127.7539408  50.9100000  87.1639408 127.5669408  51.8360000
  86.1749408 127.3249408  50.7160000  63.2349408 138.6979408  54.7910000
  62.6099408 137.9739408  54.8150000  64.0829408 138.2909408  54.9680000
  65.1829408 135.2449408  58.7310000  65.2499408 134.6459408  57.9880000
  66.0909408 135.4169408  58.9820000  79.5569408 139.2589408  34.7920000
  79.8279408 138.5009408  34.2750000  79.5719408 139.9889408  34.1730000
  86.9399408 130.5709408  35.5480000  87.2969408 131.4359408  35.7460000
  87.5429408 130.2049408  34.9000000  82.1869408 127.3489408  53.2340000
  82.6329408 127.2299408  52.3960000  81.9849408 126.4599408  53.5270000
  83.0549408 146.8219408  45.9560000  82.1179408 146.8199408  46.1500000
  83.1779408 146.0819408  45.3610000  86.0829408 134.9759408  52.9120000
  86.8299408 134.5689408  52.4730000  86.1679408 134.7089408  53.8270000
  61.7139408 124.7479408  34.2270000  61.3929408 124.3309408  33.4270000
  61.0859408 124.4889408  34.9010000  86.7119408 148.8939408  31.2240000
  87.5319408 148.5429408  31.5710000  86.3319408 149.3829408  31.9540000
  84.2559408 143.5429408  48.3680000  84.2759408 142.7569408  48.9150000
  85.1489408 143.6239408  48.0320000  87.4089408 148.0439408  58.3580000
  86.8659408 148.5749408  58.9420000  88.0689408 148.6529408  58.0260000
  66.1619408 141.5309408  55.3790000  66.6229408 142.3089408  55.0660000
  66.8009408 140.8229408  55.2930000  84.1759408 138.5089408  31.7660000
  84.5339408 139.3739408  31.5650000  84.8279408 138.1069408  32.3410000
  85.2449408 135.1359408  49.2390000  84.6809408 135.3399408  49.9860000
  85.0279408 135.8009408  48.5860000  87.8889408 122.9389408  30.7890000
  87.1389408 122.3659408  30.9500000  87.5709408 123.8159408  31.0000000
  77.5889408 125.9449408  51.8650000  77.9269408 125.0509408  51.9150000
  78.2399408 126.4199408  51.3480000  78.6329408 123.7929408  57.6990000
  79.4459408 123.2949408  57.6140000  78.5859408 124.0199408  58.6280000
  89.2179408 131.7099408  56.2810000  89.3859408 131.1539408  57.0420000
  89.5759408 132.5639408  56.5240000  80.0679408 126.6019408  50.6770000
  80.4109408 125.7399408  50.4420000  80.8469408 127.1369408  50.8290000
  89.4139408 123.1659408  46.0720000  89.2369408 122.3849408  46.5970000
  88.9069408 123.8589408  46.4960000  86.1419408 132.3979408  57.6270000
  85.4329408 132.2329408  58.2480000  86.9029408 132.5879408  58.1750000
  77.8799408 127.6249408  54.1220000  77.7579408 126.6759408  54.0920000
  77.0159408 127.9709408  54.3480000  81.5639408 135.6829408  55.4200000
  82.2419408 135.5029408  56.0710000  81.3869408 134.8329408  55.0160000
  89.8499408 122.5939408  58.7080000  89.3119408 122.9239408  59.4270000
  89.7199408 123.2259408  58.0010000  84.0009408 124.7069408  35.0710000
  83.8849408 124.5229408  34.1390000  84.2479408 123.8649408  35.4530000
  88.6979408 124.9809408  53.9730000  89.2289408 125.6649408  54.3820000
  89.2709408 124.2149408  53.9480000  62.5169408 123.7909408  58.9940000
  62.3399408 124.7299408  59.0370000  62.0049408 123.4829408  58.2460000
  69.8899408 131.8059408  47.1790000  70.2009408 131.2239408  47.8720000
  70.1229408 131.3559408  46.3660000  62.2539408 135.9619408  54.7120000
  61.4929408 135.4689408  54.4070000  63.0069408 135.4519408  54.4130000
  80.1359408 136.2199408  58.9780000  79.9219408 135.3049408  58.7990000
  80.5769408 136.2019408  59.8280000  80.0029408 129.2039408  53.4090000
  80.8009408 128.6759408  53.4560000  79.3039408 128.6049408  53.6730000
  83.6059408 132.7209408  44.1930000  83.3069408 132.6279408  43.2890000
  83.8659408 133.6389408  44.2670000  81.9269408 138.4589408  57.4240000
  81.6859408 139.2179408  57.9550000  81.2059408 137.8409408  57.5460000
  80.6599408 140.6539408  58.5530000  80.8069408 140.9329408  59.4560000
  80.5649408 141.4699408  58.0610000  83.0969408 127.0939408  50.7320000
  83.5719408 127.7899408  50.2780000  83.5829408 126.2959408  50.5220000
  60.1209408 127.1739408  55.0360000  61.0009408 127.3079408  54.6820000
  59.6779408 128.0119408  54.9010000  81.2829408 124.2129408  40.2370000
  82.1709408 124.4309408  40.5200000  80.9569408 125.0169408  39.8310000
  65.2779408 131.5559408  37.5480000  64.8449408 130.9229408  38.1220000
  65.5749408 132.2489408  38.1370000  66.0519408 126.0389408  42.9900000
  66.7619408 125.9259408  42.3580000  65.9799408 126.9859408  43.1040000
  85.8779408 134.2189408  55.3820000  85.9199408 133.5969408  56.1090000
  85.3539408 134.9449408  55.7190000  86.9689408 146.1229408  52.1750000
  87.8909408 146.2139408  52.4190000  86.8059408 146.8519408  51.5770000
  60.5089408 129.7659408  43.8980000  59.8269408 129.7809408  44.5700000
  60.2249408 129.0889408  43.2830000  82.0069408 133.9469408  46.1180000
  82.6479408 133.3789408  45.6900000  82.4899408 134.3509408  46.8390000
  81.3509408 143.5839408  57.1550000  82.0519408 144.1379408  56.8110000
  80.8199408 144.1729408  57.6900000  63.1369408 135.9089408  47.4420000
  63.2879408 136.7359408  47.8990000  62.3239408 136.0479408  46.9560000
  84.1139408 123.7159408  51.1230000  84.5879408 124.4759408  50.7840000
  84.5419408 123.5189408  51.9560000  59.8739408 129.2279408  57.4500000
  60.4399408 129.4969408  56.7260000  60.4529408 128.7489408  58.0430000
  73.7419408 126.4529408  45.6390000  74.2449408 126.8479408  44.9270000
  73.4279408 127.1979408  46.1520000  88.1879408 132.5169408  59.3490000
  89.0379408 132.9559408  59.3450000  88.2049408 131.9679408  60.1330000
  63.9139408 134.3159408  50.0960000  63.3239408 135.0459408  50.2810000
  63.8699408 134.2069408  49.1460000  79.3529408 129.0949408  49.9650000
  78.9699408 129.8979408  50.3180000  79.1119408 128.4159408  50.5960000
  77.2159408 122.2419408  44.2630000  77.4569408 121.6839408  45.0030000
  76.9959408 123.0849408  44.6600000  65.4609408 134.3169408  56.1370000
  64.8509408 133.6819408  55.7600000  66.2679408 133.8219408  56.2740000
  66.1759408 123.6459408  53.8610000  67.0319408 123.4339408  54.2340000
  65.6269408 123.8449408  54.6190000  60.6509408 134.1239408  53.5250000
  59.7119408 133.9479408  53.5810000  60.9809408 133.4709408  52.9080000
  62.0539408 132.5049408  51.6720000  62.7779408 133.0489408  51.3630000
  61.3189408 132.7389408  51.1060000  87.4739408 128.2959408  37.3770000
  87.0789408 129.0559408  36.9490000  87.4529408 127.6089408  36.7110000
  64.6389408 128.2059408  30.3610000  64.5499408 129.1419408  30.5400000
  65.5799408 128.0399408  30.4160000  63.5789408 125.2939408  44.7230000
  64.2869408 125.7469408  44.2640000  62.8469408 125.9109408  44.7040000
  74.3679408 128.5949408  50.4910000  74.4269408 129.5469408  50.5680000
  74.3979408 128.4279408  49.5490000  62.4339408 149.4479408  51.3220000
  61.7669408 148.7629408  51.3040000  62.1439408 150.0829408  50.6670000
  87.1349408 132.3819408  51.4320000  86.3539408 131.8949408  51.6950000
  87.7049408 132.3559408  52.2000000  61.7099408 124.5589408  47.3620000
  61.2679408 124.1129408  46.6390000  61.0809408 125.2169408  47.6580000
  82.3099408 130.3559408  51.7640000  81.7209408 131.1059408  51.6740000
  81.7629408 129.6659408  52.1410000  88.6129408 140.5529408  50.3810000
  89.2029408 140.8629408  51.0670000  88.5069408 141.3039408  49.7970000
  78.5159408 145.7009408  30.7170000  78.6129408 146.6029408  31.0230000
  79.1969408 145.5999408  30.0510000  84.3199408 135.3179408  43.4330000
  83.7379408 136.0469408  43.2200000  84.8819408 135.6559408  44.1310000
  82.5469408 135.5769408  34.2880000  81.8889408 136.0879408  33.8160000
  82.4899408 134.7009408  33.9070000  79.5539408 120.0589408  47.2370000
  79.8519408 120.3489408  46.3750000  78.6799408 120.4369408  47.3290000
  84.5779408 146.1839408  49.7680000  85.3119408 145.7339408  49.3490000
  83.8019408 145.8429408  49.3220000  81.9709408 149.7309408  34.2900000
  81.4919408 150.5529408  34.3860000  82.2929408 149.5359408  35.1700000
  79.7779408 143.9979408  43.5600000  80.2779408 144.1409408  42.7560000
  80.3799408 143.5269408  44.1360000  76.2369408 122.5929408  37.0360000
  76.4979408 121.7169408  36.7530000  77.0569408 123.0199408  37.2820000
  77.8549408 123.6489408  38.8230000  78.0219408 124.5789408  38.9790000
  77.6949408 123.2839408  39.6930000  80.3289408 144.1079408  32.8240000
  79.6049408 144.5969408  32.4350000  80.2499408 144.2699408  33.7640000
  87.1489408 141.4149408  38.1260000  87.0169408 141.9989408  38.8730000
  86.3659408 140.8649408  38.1090000  81.1139408 122.1109408  34.7390000
  81.1109408 122.6599408  35.5240000  81.5609408 122.6399408  34.0780000
  82.0079408 130.1399408  46.2200000  81.9829408 130.3189408  45.2790000
  82.8879408 129.7949408  46.3750000  76.6089408 138.0909408  43.3550000
  76.7289408 137.5009408  42.6110000  77.4469408 138.5439408  43.4390000
  87.8639408 137.4319408  39.3610000  87.7469408 137.2979408  40.3010000
  88.3079408 138.2779408  39.2930000  61.0329408 145.6039408  43.9710000
  60.2089408 145.2399408  44.2930000  61.2309408 145.0919408  43.1870000
  61.9339408 149.6879408  48.6420000  62.2469408 148.7839408  48.6550000
  61.5109408 149.7829408  47.7880000  61.1559408 138.4609408  50.0400000
  60.2709408 138.7809408  49.8660000  61.0349408 137.5459408  50.2950000
  62.0799408 148.3339408  33.5080000  61.6479408 148.7749408  32.7770000
  62.4669408 149.0439408  34.0210000  77.4589408 139.6149408  36.9330000
  76.5709408 139.2699408  37.0270000  77.7209408 139.3639408  36.0470000
  85.5019408 145.3549408  58.7860000  86.3499408 144.9159408  58.7100000
  85.0439408 145.1329408  57.9750000  86.6749408 137.5639408  43.5590000
  86.2789408 137.7839408  44.4030000  86.8119408 136.6169408  43.5990000
  79.9319408 143.5469408  35.4520000  79.4589408 142.7149408  35.4690000
  80.8459408 143.3059408  35.6030000  83.0439408 141.6259408  43.4910000
  82.5689408 141.6099408  42.6600000  83.9519408 141.4399408  43.2520000
  81.5259408 147.0239408  33.9340000  81.8329408 146.7029408  33.0860000
  81.8009408 147.9409408  33.9570000  82.5659408 143.1829408  36.2490000
  82.5139408 142.3989408  36.7960000  83.4839408 143.2299408  35.9820000
  62.7359408 143.2419408  51.7040000  62.8889408 143.6109408  50.8350000
  62.5469408 143.9999408  52.2570000  85.2289408 123.2469408  42.4100000
  84.8559408 122.6399408  41.7710000  86.0849408 123.4789408  42.0500000
  63.0529408 146.7679408  45.5720000  62.4119408 146.2939408  45.0430000
  63.1159408 147.6289408  45.1590000  84.1119408 141.8259408  33.7350000
  84.7569408 142.4489408  34.0690000  84.4369408 141.5849408  32.8680000
  85.3229408 136.5199408  33.7300000  85.4299408 135.8639408  33.0410000
  84.4889408 136.2979408  34.1450000  61.2079408 144.3789408  58.9760000
  60.7519408 143.5889408  59.2650000  62.1189408 144.1049408  58.8680000
  85.6729408 140.8899408  53.2500000  85.9379408 141.6929408  52.8020000
  85.0279408 140.4909408  52.6670000  88.0719408 135.0429408  44.1250000
  88.3279408 134.1539408  43.8810000  88.7059408 135.6059408  43.6790000
  81.4969408 137.6769408  38.9910000  80.6869408 137.9649408  39.4120000
  81.2069408 137.1699408  38.2330000  81.3089408 141.2979408  40.9070000
  80.3719408 141.3809408  41.0840000  81.3559408 140.9219408  40.0280000
  79.9409408 145.9629408  58.3800000  79.0549408 146.3189408  58.3170000
  80.3819408 146.2749408  57.5900000  82.7679408 139.3119408  47.3790000
  82.3009408 140.0629408  47.0110000  83.4259408 139.6989408  47.9570000
  79.7129408 141.5399408  37.5910000  79.1179408 140.8719408  37.2500000
  80.5109408 141.0599408  37.8100000  83.7039408 137.7479408  40.5130000
  84.1529408 136.9339408  40.2860000  82.9529408 137.7799408  39.9200000
  87.4709408 145.8359408  36.5070000  87.7579408 144.9329408  36.6370000
  87.3959408 145.9299408  35.5570000  87.1539408 145.2229408  48.8610000
  87.2309408 144.5909408  48.1470000  87.9429408 145.7599408  48.7930000
  88.9979408 135.2499408  47.3840000  88.6679408 135.0439408  48.2580000
  88.5579408 134.6249408  46.8080000  77.0249408 142.7099408  47.6690000
  76.8809408 142.0149408  47.0260000  76.7759408 143.5139408  47.2140000
  85.5159408 122.1409408  32.2740000  84.6969408 122.6339408  32.2290000
  85.2789408 121.3189408  32.7030000  87.8379408 136.4779408  34.9610000
  87.1649408 136.4449408  34.2810000  88.2269408 137.3489408  34.8720000
  78.1619408 131.4479408  48.1310000  78.1129408 131.6889408  49.0560000
  79.0279408 131.7449408  47.8520000  71.7949408 124.1809408  45.4660000
  71.0579408 124.3869408  46.0420000  72.4969408 124.7619408  45.7580000
  84.6279408 149.7129408  33.2650000  83.6809408 149.5999408  33.3410000
  84.9819408 149.3039408  34.0550000  84.1549408 148.4689408  38.6710000
  84.9869408 147.9959408  38.6860000  83.5239408 147.8559408  39.0480000
  87.6299408 148.3429408  37.5860000  87.5669408 147.3909408  37.5050000
  87.5549408 148.5079408  38.5260000  86.7179408 143.2369408  47.1170000
  87.0469408 143.5299408  46.2670000  86.4409408 142.3329408  46.9690000
  88.6429408 143.4169408  32.1320000  89.5469408 143.7219408  32.2000000
  88.2299408 144.0239408  31.5180000  78.1019408 149.3339408  43.8490000
  78.8249408 149.9569408  43.9170000  78.5209408 148.5029408  43.6270000
  60.8829408 135.8929408  50.9960000  61.0199408 135.6469408  51.9110000
  60.0429408 135.4959408  50.7640000  89.7119408 147.0349408  48.1520000
  89.5509408 147.4989408  47.3300000  89.2639408 147.5589408  48.8150000
  67.1339408 143.6299408  47.5170000  66.9599408 144.4419408  47.0430000
  67.4829408 143.0339408  46.8540000  64.8129408 140.6049408  50.3340000
  64.8989408 141.5329408  50.5520000  64.8869408 140.1529408  51.1740000
  85.3029408 146.0099408  41.7730000  85.0519408 145.5969408  40.9470000
  84.6769408 146.7259408  41.8830000  75.4609408 143.4619408  33.0360000
  75.9439408 143.2799408  32.2300000  75.3659408 142.6069408  33.4560000
  73.5109408 147.9189408  45.3630000  74.4469408 147.8499408  45.5500000
  73.2639408 147.0499408  45.0470000  85.1669408 145.1589408  31.8110000
  84.2559408 144.8679408  31.8270000  85.3879408 145.2049408  30.8810000
  81.1539408 147.1659408  36.5480000  81.4189408 146.9389408  35.6570000
  81.5359408 148.0299408  36.7000000  77.0539408 146.8609408  58.2050000
  76.3929408 147.1089408  58.8510000  76.5519408 146.4939408  57.4770000
  76.0469408 124.5639408  45.7710000  76.0809408 124.5099408  46.7260000
  75.4529408 125.2939408  45.5940000  62.8799408 147.4629408  42.2670000
  62.0239408 147.0379408  42.2150000  63.2679408 147.3299408  41.4030000
  88.6919408 139.2009408  33.8620000  89.5599408 138.8229408  33.7170000
  88.1619408 138.8679408  33.1380000  87.3199408 138.8899408  31.5420000
  87.8129408 139.1749408  30.7720000  87.3469408 137.9339408  31.5040000
  60.1709408 145.8719408  33.6420000  60.6029408 145.3299408  32.9810000
  60.8439408 146.4929408  33.9200000  81.9069408 140.2649408  38.2860000
  81.7919408 139.3209408  38.3890000  82.4119408 140.3589408  37.4790000
  80.8209408 145.7819408  41.5460000  80.6039408 145.9449408  40.6280000
  80.7959408 146.6459408  41.9560000  87.3569408 121.1799408  36.2670000
  87.6309408 121.6629408  35.4870000  88.0139408 120.4909408  36.3660000
  78.4929408 140.8929408  41.3400000  78.2899408 140.2629408  40.6490000
  77.8709408 141.6069408  41.2050000  87.5929408 148.9229408  40.4380000
  87.4519408 149.3709408  41.2720000  88.5019408 148.6269408  40.4740000
  69.8979408 148.3239408  47.5680000  70.5479408 147.6229408  47.5210000
  69.0609408 147.8869408  47.4100000  60.6229408 145.0849408  49.8260000
  61.5509408 144.8679408  49.9130000  60.5909408 145.7159408  49.1080000
  72.2699408 136.4249408  58.7760000  72.9509408 137.0969408  58.8060000
  72.4539408 135.9319408  57.9760000  89.5049408 129.6089408  33.9390000
  89.2369408 129.4409408  33.0360000  90.3389408 129.1489408  34.0320000
  84.9399408 148.5519408  42.8940000  85.6679408 148.0659408  43.2810000
  85.3499408 149.3119408  42.4820000  86.2609408 140.5759408  46.5330000
  85.9599408 139.7359408  46.1870000  87.1519408 140.4039408  46.8380000
  60.9209408 149.9589408  39.9480000  61.4189408 149.3979408  39.3520000
  60.0779408 150.0829408  39.5120000  60.1289408 120.2789408  36.1440000
  60.1339408 120.2069408  35.1890000  60.6739408 119.5509408  36.4420000
  80.1059408 146.3139408  38.9570000  80.3829408 146.3689408  38.0430000
  79.8789408 147.2129408  39.1940000  83.6379408 149.1839408  57.3740000
  83.8629408 148.6559408  58.1400000  83.7149408 150.0889408  57.6760000
  81.2849408 141.4409408  33.2030000  82.1909408 141.6019408  33.4660000
  80.9289408 142.3109408  33.0260000  84.8339408 138.1349408  45.5300000
  85.1179408 137.2749408  45.8380000  84.2629408 138.4619408  46.2250000
  85.9399408 143.0769408  40.1740000  85.0409408 142.8989408  40.4490000
  85.8779408 143.8789408  39.6550000  67.8459408 124.6539408  58.8310000
  68.2209408 124.7389408  59.7070000  67.3629408 123.8279408  58.8550000
  60.5509408 143.0329408  38.3860000  60.1859408 143.4379408  37.6000000
  59.8569408 143.1109408  39.0410000  81.0919408 122.8469408  57.7180000
  81.6289408 122.2659408  58.2570000  81.7059408 123.5029408  57.3870000
  79.0939408 145.2559408  47.6310000  78.8449408 145.5209408  48.5160000
  78.5189408 144.5169408  47.4310000  84.6889408 146.4959408  53.9890000
  85.4609408 146.4079408  53.4300000  84.0209408 145.9579408  53.5630000
  79.7889408 147.3129408  53.2930000  80.5389408 147.1429408  52.7230000
  79.6029408 148.2449408  53.1720000  86.0789408 148.6559408  35.3270000
  86.5179408 148.9459408  36.1270000  86.5309408 147.8469408  35.0860000
  81.9989408 147.5469408  31.0180000  82.9239408 147.6119408  30.7810000
  81.7279408 146.6889408  30.6910000  77.6129408 140.7449408  33.2240000
  77.4149408 139.8939408  32.8320000  77.7729408 141.3209408  32.4770000
  88.7029408 143.2359408  50.3090000  89.5569408 143.6369408  50.1500000
  88.0819408 143.8059408  49.8540000  79.1839408 142.3919408  49.3730000
  78.8759408 142.0519408  50.2130000  78.3959408 142.4469408  48.8330000
  88.9259408 139.3549408  59.1130000  88.4939408 139.0299408  58.3230000
  89.7449408 138.8629408  59.1590000  82.4529408 142.8319408  54.3870000
  83.2899408 143.2969408  54.4070000  81.9209408 143.3219408  53.7600000
  89.3329408 140.1069408  39.6110000  90.1389408 140.5079408  39.2850000
  88.7129408 140.1949408  38.8870000  89.7389408 121.2499408  52.7270000
  89.9719408 120.5979408  52.0660000  88.7969408 121.1349408  52.8560000
  74.6139408 144.3099408  58.8680000  73.7559408 144.7329408  58.8890000
  75.0889408 144.7639408  58.1720000  61.4839408 140.5129408  56.1210000
  61.9909408 139.8839408  55.6070000  60.8779408 140.9039408  55.4910000
  86.4009408 130.1289408  59.6700000  86.3809408 130.6799408  60.4520000
  86.2529408 130.7369408  58.9450000  89.0999408 146.4319408  55.9860000
  88.5239408 146.4859408  56.7480000  88.5919408 145.9469408  55.3350000
  87.4289408 144.6289408  54.5640000  86.6139408 144.5409408  54.0710000
  87.3679408 143.9629408  55.2490000  86.4519408 138.2429408  53.9800000
  86.5979408 139.0739408  53.5290000  85.5169408 138.0689408  53.8690000
  86.6279408 125.1689408  60.1560000  85.8039408 124.7719408  59.8740000
  86.6229408 126.0389408  59.7570000  62.8429408 145.7119408  53.1490000
  63.7689408 145.4969408  53.0340000  62.8479408 146.5679408  53.5780000
  83.8769408 141.7659408  57.1800000  84.5629408 142.2469408  56.7180000
  83.0929408 142.3049408  57.0720000  88.0669408 135.0089408  50.1910000
  88.0739408 135.9439408  49.9830000  87.1889408 134.8459408  50.5340000
  86.0639408 137.5379408  58.8710000  86.7539408 136.9079408  58.6660000
  86.4249408 138.3839408  58.6060000  89.9059408 148.0329408  51.8660000
  89.3759408 148.3819408  52.5830000  90.0419408 147.1129408  52.0930000
  87.5559408 143.3009408  58.4550000  88.1949408 143.8009408  58.9620000
  88.0589408 142.9369408  57.7270000  87.8099408 137.9179408  56.6380000
  87.3599408 138.3039408  55.8870000  87.8709408 136.9859408  56.4280000
  80.8229408 140.4389408  54.5460000  81.4419408 141.1659408  54.6110000
  80.8099408 140.2179408  53.6140000  84.0979408 132.2559408  59.3850000
  83.7049408 133.1289408  59.3770000  83.3609408 131.6629408  59.5350000
  89.0779408 142.0099408  56.4940000  89.7929408 141.5059408  56.8830000
  89.4689408 142.4279408  55.7270000  86.4579408 142.1029408  55.8250000
  87.2999408 141.6859408  56.0080000  86.1359408 141.6579408  55.0400000
  84.2699408 149.2149408  54.6630000  84.2869408 148.9489408  55.5820000
  84.4699408 148.4149408  54.1780000  79.3969408 142.8279408  55.2380000
  79.5079408 142.1059408  54.6190000  80.1119408 142.7199408  55.8640000
  80.7379408 123.9019408  50.2470000  80.8629408 123.9519408  49.3000000
  81.6089408 124.0529408  50.6130000  89.0199408 148.8129408  54.3330000
  89.8619408 149.1639408  54.6250000  88.8459408 148.0819408  54.9260000
  76.8359408 121.2099408  57.0900000  77.4759408 120.5949408  57.4500000
  77.1229408 122.0669408  57.4050000  86.1579408 146.4039408  33.9090000
  85.6669408 147.2129408  34.0520000  85.8099408 146.0549408  33.0890000
  77.0399408 148.4119408  54.8180000  77.5809408 148.5059408  55.6020000
  77.1749408 147.5059408  54.5410000  83.6199408 144.9529408  52.0760000
  82.8519408 144.5989408  51.6270000  84.1499408 145.3379408  51.3780000
  81.2529408 143.5169408  50.7880000  80.5179408 143.0819408  50.3570000
  80.8559408 143.9929408  51.5170000  63.1729408 149.6979408  53.8650000
  62.8949408 149.4999408  52.9710000  63.6089408 150.5479408  53.7990000
  84.4219408 129.4159408  50.1160000  85.2529408 129.6309408  50.5400000
  83.7539408 129.7569408  50.7110000  62.7039408 141.1609408  30.5350000
  61.8629408 141.6189408  30.5440000  62.8899408 141.0209408  29.6060000
  78.5739408 146.5729408  49.9790000  79.3969408 147.0059408  50.2050000
  77.9349408 146.9379408  50.5900000  88.8059408 136.1259408  59.0390000
  89.4149408 136.8549408  58.9240000  89.3669408 135.3549408  59.1220000
  83.5929408 140.4459408  36.1030000  84.4549408 140.0469408  36.2220000
  83.6239408 140.8299408  35.2270000  81.0189408 141.9559408  47.3460000
  80.6409408 142.0609408  48.2200000  81.4569408 142.7889408  47.1720000
  89.3579408 126.4659408  51.7420000  88.9689408 126.1709408  50.9190000
  89.0259408 125.8529408  52.3980000  65.0389408 140.2599408  53.3180000
  65.4329408 140.8059408  53.9980000  64.2329408 139.9279408  53.7140000
  84.5659408 147.9129408  59.5880000  84.9279408 147.0679408  59.3220000
  85.1819408 148.2429408  60.2420000  62.0639408 122.4419408  49.6400000
  62.0359408 123.1009408  48.9460000  61.3919408 121.8059408  49.3950000
  76.0279408 149.2599408  48.5900000  75.0909408 149.1729408  48.4130000
  76.1359408 148.9249408  49.4800000  80.3859408 144.2079408  53.2040000
  80.0829408 145.1069408  53.3300000  79.8389408 143.6859408  53.7910000
  60.8689408 126.2169408  30.9050000  61.1979408 126.6709408  30.1290000
  61.6129408 126.1979408  31.5060000  64.5629408 145.8619408  55.9740000
  63.6279408 146.0279408  56.0910000  64.7009408 144.9909408  56.3480000
  70.0009408 146.2329408  51.9690000  70.8279408 145.7619408  52.0740000
  70.2609408 147.1449408  51.8330000  73.1139408 149.2469408  48.1040000
  73.4209408 148.6579408  47.4150000  72.3449408 149.6749408  47.7280000
  64.1209408 133.6749408  73.7610000  64.0209408 134.4239408  74.3480000
  64.6659408 133.0579408  74.2490000  79.4019408 137.0039408  63.4620000
  79.3069408 136.1259408  63.8320000  78.6369408 137.1089408  62.8970000
  66.9639408 147.2739408  64.1330000  66.2589408 146.7169408  64.4630000
  66.9889408 148.0129408  64.7410000  81.1249408 121.1489408  81.7350000
  80.9649408 120.2999408  81.3230000  81.6349408 121.6379408  81.0890000
  66.7109408 138.7099408  81.4700000  66.3839408 139.3649408  82.0880000
  67.6529408 138.8729408  81.4250000  71.8849408 131.9679408  72.0810000
  71.2899408 131.2449408  72.2800000  72.7569408 131.5759408  72.1090000
  65.8789408 126.9689408  68.7010000  65.4139408 126.1719408  68.4480000
  65.9029408 127.4959408  67.9020000  75.1049408 137.8279408  75.6050000
  74.2939408 137.6459408  75.1300000  75.7899408 137.7719408  74.9380000
  60.6359408 134.0729408  68.5360000  59.8129408 134.3929408  68.1640000
  60.9089408 133.3719408  67.9450000  78.8559408 138.6129408  69.2840000
  78.4689408 138.1719408  70.0410000  78.1489408 139.1559408  68.9360000
  69.0639408 128.6819408  77.8260000  68.4579408 128.2489408  78.4280000
  69.3939408 127.9759408  77.2700000  71.2259408 131.3479408  65.7040000
  70.6419408 131.7979408  66.3140000  71.6789408 130.6969408  66.2400000
  77.4669408 135.2269408  77.9080000  77.9479408 135.1439408  78.7320000
  78.1319408 135.1079408  77.2300000  82.0799408 129.5039408  66.3360000
  81.9909408 129.7379408  65.4120000  82.7389408 130.1109408  66.6740000
  65.6149408 133.6859408  68.9500000  65.7649408 133.7169408  69.8950000
  64.7539408 134.0859408  68.8300000  89.3079408 138.9599408  75.2020000
  89.6479408 139.5329408  75.8900000  89.8979408 139.0979408  74.4610000
  72.9309408 145.5519408  74.1980000  73.8639408 145.3599408  74.1090000
  72.5239408 145.1209408  73.4470000  88.0369408 125.5629408  65.5490000
  87.0969408 125.6829408  65.4130000  88.2159408 124.6789408  65.2300000
  78.3629408 141.3589408  60.6810000  77.7089408 142.0489408  60.5670000
  78.2789408 140.8169408  59.8970000  70.6849408 135.9839408  66.6650000
  71.1339408 136.8249408  66.7490000  69.8769408 136.0929408  67.1670000
  88.7999408 129.9389408  75.7730000  87.8609408 129.9999408  75.5990000
  88.8569408 129.5959408  76.6650000  62.3889408 140.7699408  63.8460000
  63.1819408 141.3059408  63.8470000  62.6729408 139.9199408  64.1820000
  77.9779408 134.4559408  70.6650000  77.2519408 134.3639408  70.0480000
  77.7039408 133.9559408  71.4340000  73.5299408 134.6779408  60.5350000
  72.9009408 133.9769408  60.7060000  73.0779408 135.2629408  59.9270000
  76.9329408 142.0279408  73.3670000  77.2779408 142.9039408  73.1980000
  77.6629408 141.4399408  73.1730000  71.7599408 143.1179408  68.5430000
  71.6899408 143.8819408  67.9720000  72.0759408 142.4179408  67.9710000
  74.5309408 146.0489408  61.8910000  75.1549408 146.0429408  61.1650000
  74.9719408 145.5639408  62.5890000  61.5889408 127.8679408  65.1380000
  61.9129408 127.0799408  64.7030000  62.3749408 128.2939408  65.4810000
  64.3779408 121.6949408  76.6380000  63.4469408 121.8319408  76.4640000
  64.7679408 121.5709408  75.7730000  71.0189408 122.1809408  78.1460000
  70.7569408 123.1019408  78.1390000  71.6919408 122.1279408  78.8240000
  75.1549408 120.6799408  68.8720000  74.7649408 121.4279408  68.4200000
  75.0899408 119.9599408  68.2450000  75.4189408 134.0349408  73.0950000
  74.8099408 133.9809408  73.8320000  74.8679408 134.2559408  72.3440000
  66.8749408 146.9259408  69.7580000  67.0919408 147.8089408  70.0560000
  67.0169408 146.9499408  68.8120000  88.5349408 135.5709408  67.6430000
  88.4489408 136.1489408  66.8850000  88.1879408 136.0809408  68.3750000
  68.3539408 126.3839408  63.5020000  69.0179408 126.9059408  63.0520000
  67.9879408 126.9769408  64.1590000  84.3849408 129.4109408  77.3650000
  84.7209408 128.5179408  77.2950000  84.2909408 129.5589408  78.3060000
  67.7939408 133.7699408  67.0920000  67.1589408 133.5089408  67.7590000
  68.3649408 133.0079408  66.9930000  69.0859408 122.8069408  72.3010000
  69.2659408 123.2629408  71.4790000  69.7729408 123.1059408  72.8980000
  75.8509408 133.9929408  69.0110000  75.1649408 134.5659408  68.6690000
  75.4019408 133.1709408  69.2080000  67.6489408 137.3009408  72.5020000
  67.1329408 137.8939408  73.0490000  67.6139408 136.4609408  72.9600000
  82.4549408 123.6049408  62.6640000  81.6819408 123.5749408  62.1000000
  82.7979408 124.4919408  62.5530000  81.2289408 140.5009408  74.9470000
  80.8759408 141.0379408  75.6570000  81.9479408 141.0209408  74.5870000
  71.1919408 146.2969408  61.5580000  71.2509408 147.2469408  61.6600000
  71.6389408 145.9449408  62.3270000  64.6869408 123.6109408  72.3470000
  63.8339408 123.9499408  72.0730000  65.2309408 124.3909408  72.4540000
  71.3659408 140.8169408  72.9800000  71.3449408 141.5859408  72.4090000
  72.2869408 140.5579408  72.9990000  75.5709408 124.5019408  83.2080000
  76.1229408 125.1429408  82.7600000  75.2669408 123.9189408  82.5130000
  74.5329408 139.5259408  67.8070000  74.0209408 138.9609408  68.3850000
  73.9069408 140.1799408  67.4950000  64.9169408 134.0799408  66.0540000
  65.2429408 133.2809408  66.4690000  64.3959408 134.5079408  66.7330000
  71.9419408 124.9309408  78.4310000  72.8109408 125.3169408  78.3240000
  71.7659408 124.9919408  79.3700000  62.9999408 143.7209408  64.9930000
  62.5599408 143.1309408  65.6050000  63.7909408 143.2499408  64.7310000
  69.3909408 125.9979408  73.5600000  68.4679408 125.8209408  73.7410000
  69.5449408 125.6099408  72.6990000  66.4589408 139.0469408  74.2110000
  65.7969408 138.9559408  74.8960000  67.0899408 139.6709408  74.5690000
  72.7269408 124.7419408  73.0350000  73.5559408 124.2759408  72.9230000
  72.3699408 124.4009408  73.8560000  70.9189408 135.5149408  71.9010000
  70.0709408 135.1079408  71.7250000  70.7289408 136.4519408  71.9560000
  71.2779408 128.6519408  69.3500000  71.3409408 127.9429408  69.9910000
  70.6729408 129.2789408  69.7440000  67.3769408 148.8119408  61.6800000
  66.6809408 148.2869408  61.2850000  67.2869408 148.6599408  62.6210000
  75.6899408 138.6069408  64.5490000  75.8669408 138.6029408  63.6090000
  76.2479408 137.9129408  64.9010000  66.0069408 120.8799408  64.4630000
  66.8559408 120.4709408  64.2940000  66.1609408 121.8149408  64.3310000
  69.4119408 128.7209408  66.5640000  69.9009408 128.4549408  67.3430000
  70.0189408 129.2819408  66.0810000  70.9679408 138.3959408  75.9660000
  71.6029408 137.8829408  75.4660000  70.1389408 137.9329408  75.8490000
  69.0729408 130.0809408  69.9790000  69.3089408 130.3209408  70.8750000
  68.1399408 129.8699408  70.0250000  68.6629408 143.0849408  65.7270000
  69.1639408 142.7029408  66.4480000  69.3049408 143.2099408  65.0280000
  72.1909408 123.0269408  66.6490000  72.5829408 123.5069408  67.3790000
  72.8259408 122.3399408  66.4440000  62.7639408 130.3209408  75.9390000
  62.1979408 130.7929408  75.3280000  62.1579408 129.8679408  76.5260000
  63.7929408 125.9289408  78.5460000  64.5359408 125.3939408  78.2680000
  63.0419408 125.5539408  78.0850000  67.2649408 125.4869408  70.7700000
  66.6499408 126.0649408  70.3180000  67.6409408 124.9459408  70.0760000
  64.4899408 124.3149408  68.6110000  63.8189408 123.6769408  68.8510000
  64.7519408 124.0669408  67.7250000  78.2059408 131.1969408  71.0920000
  78.7899408 131.1579408  70.3350000  77.3289408 131.0939408  70.7250000
  72.6159408 122.7419408  62.6460000  72.2479408 123.1119408  61.8440000
  73.2749408 123.3789408  62.9240000  63.9959408 130.0319408  79.2360000
  64.7059408 129.4889408  78.8920000  64.1359408 130.8909408  78.8370000
  73.6049408 129.6929408  63.1680000  74.0819408 128.9459408  63.5280000
  74.2209408 130.4239408  63.2310000  70.6809408 131.2849408  60.4750000
  70.9629408 131.9649408  59.8630000  70.5939408 131.7389408  61.3140000
  66.1979408 148.7859408  67.3920000  65.6229408 149.3219408  67.9370000
  66.9389408 149.3569408  67.1890000  75.6389408 126.6119408  68.9870000
  75.6199408 126.6119408  69.9440000  76.5409408 126.8459408  68.7660000
  76.1629408 140.3279408  69.8410000  75.8969408 140.1039408  68.9500000
  75.7949408 139.6309408  70.3840000  78.8369408 139.6889408  73.6890000
  79.6529408 139.8079408  74.1740000  79.0429408 139.9709408  72.7980000
  67.3569408 134.9479408  74.1060000  66.7409408 134.6609408  74.7800000
  67.7119408 134.1349408  73.7450000  82.1589408 131.9809408  68.6940000
  82.2029408 132.9319408  68.6020000  82.8179408 131.6489408  68.0840000
  61.5759408 121.8369408  72.3790000  61.6699408 121.3979408  71.5340000
  61.7809408 122.7539408  72.1980000  69.7979408 133.5629408  80.7020000
  69.9119408 132.6129408  80.6900000  70.2249408 133.8659408  79.9000000
  72.6309408 133.1459408  74.3340000  72.2629408 133.3379408  73.4710000
  72.9819408 132.2589408  74.2530000  70.1429408 128.5439408  62.9460000
  70.7999408 128.6049408  62.2530000  70.5939408 128.8529408  63.7320000
  64.7069408 135.4199408  83.1280000  64.5639408 135.8999408  82.3120000
  64.9709408 136.0909408  83.7570000  62.9149408 136.4549408  74.3630000
  63.5279408 137.1049408  74.7050000  62.2449408 136.3749408  75.0420000
  69.9729408 121.6209408  69.1660000  70.8859408 121.7839408  68.9290000
  70.0159408 121.2549408  70.0490000  72.5159408 129.3919408  67.0440000
  72.9239408 128.9559408  66.2950000  72.6179408 128.7729408  67.7670000
  80.6819408 134.5549408  70.8580000  80.4699408 134.9719408  71.6930000
  79.8309408 134.3559408  70.4670000  65.0659408 132.1979408  78.1450000
  65.8319408 131.7159408  77.8330000  64.6889408 132.5859408  77.3550000
  64.4699408 126.9909408  81.0950000  64.3759408 126.7169408  80.1820000
  64.4599408 127.9469408  81.0610000  76.7989408 128.8369408  81.9130000
  76.1259408 128.2629408  81.5470000  77.3839408 128.2479408  82.3890000
  77.3339408 121.3149408  77.3720000  77.1459408 122.1649408  77.7700000
  76.5919408 120.7639408  77.6200000  64.3569408 144.6489408  73.1330000
  65.1819408 145.0809408  72.9100000  63.8739408 145.2999408  73.6410000
  66.0859408 134.8579408  71.4430000  65.4669408 135.3769408  70.9300000
  65.9959408 135.1919408  72.3360000  73.4409408 136.1729408  68.5040000
  73.3789408 135.9409408  67.5780000  72.7799408 136.8539408  68.6260000
  68.5019408 124.1379408  68.6120000  68.8629408 124.4539408  67.7840000
  68.9809408 123.3279408  68.7890000  69.2219408 149.9579408  79.5540000
  69.1209408 149.3189408  78.8490000  69.7729408 150.6449408  79.1780000
  65.8979408 146.1729408  75.7840000  64.9769408 146.4009408  75.6590000
  66.2559408 146.1269408  74.8980000  64.1719408 128.0399408  66.5580000
  63.5999408 128.3309408  67.2680000  64.3229408 128.8259408  66.0330000
  80.9309408 128.1219408  77.8530000  80.4899408 128.4399408  78.6410000
  81.2959408 128.9089408  77.4480000  63.5469408 149.1949408  74.3880000
  63.4529408 148.7309408  73.5560000  64.0779408 149.9629408  74.1760000
  67.6459408 135.5889408  60.5610000  68.1379408 134.9059408  61.0160000
  68.1499408 136.3889408  60.7110000  69.7719408 122.8839408  65.6410000
  70.6209408 122.7349408  66.0590000  69.7999408 122.3549408  64.8440000
  69.0259408 136.3989408  75.6100000  68.7289408 136.0099408  76.4320000
  68.4029408 136.0809408  74.9560000  84.9449408 130.7089408  82.4340000
  84.4059408 130.1399408  82.9830000  84.3479408 131.3989408  82.1430000
  72.9919408 126.0789408  80.9050000  73.2669408 126.9929408  80.8340000
  73.4549408 125.7489408  81.6750000  79.7759408 137.0209408  66.7930000
  79.6259408 137.7959408  66.2530000  79.1299408 137.0889408  67.4960000
  84.9269408 135.3199408  69.5870000  85.3159408 134.5869408  70.0650000
  85.3279408 135.2809408  68.7190000  65.7419408 131.5499408  72.2860000
  65.5099408 131.7689408  73.1890000  66.5849408 131.9799408  72.1450000
  89.0709408 122.3679408  73.5800000  89.1899408 122.7229408  74.4610000
  89.9599408 122.2269408  73.2550000  75.3469408 127.8619408  73.5700000
  75.5059408 127.1419408  72.9600000  76.2199408 128.1279408  73.8590000
  73.9419408 147.7469408  71.2050000  73.6119408 147.6369408  72.0970000
  73.2129408 148.1429408  70.7270000  62.4759408 133.4329408  71.5170000
  62.9669408 133.3179408  72.3310000  62.3929408 134.3819408  71.4200000
  64.0809408 130.9719408  70.1910000  63.3579408 131.5829408  70.3280000
  64.6869408 131.1519408  70.9110000  62.4699408 122.2689408  69.4860000
  61.9209408 123.0069408  69.2190000  61.8819408 121.5139408  69.4670000
  63.0199408 136.0899408  71.5960000  62.9749408 136.1599408  72.5500000
  63.1089408 136.9939408  71.2930000  72.5739408 134.1909408  76.7410000
  72.6879408 133.7449408  75.9010000  73.3929408 134.6689408  76.8720000
  69.4949408 135.9309408  63.8740000  69.7659408 135.7989408  64.7830000
  69.9059408 136.7569408  63.6190000  68.0449408 138.2839408  77.2700000
  67.8129408 137.5769408  77.8720000  68.2419408 137.8409408  76.4450000
  68.0199408 121.0509408  74.0630000  68.1869408 121.8039408  73.4960000
  68.5849408 121.1939408  74.8240000  72.3299408 143.4389408  64.0320000
  71.5709408 142.9229408  63.7610000  73.0749408 143.0059408  63.6160000
  63.8559408 148.2669408  66.1100000  63.5329408 149.1219408  65.8250000
  64.7399408 148.4389408  66.4320000  62.1229408 142.1309408  77.8600000
  62.8419408 141.8089408  77.3180000  62.3069408 143.0629408  77.9750000
  78.9909408 128.3469408  65.9690000  79.9089408 128.3779408  66.2400000
  78.8449408 127.4349408  65.7200000  65.8029408 136.0779408  64.3120000
  66.5949408 135.6419408  63.9980000  65.6179408 135.6609408  65.1540000
  75.6349408 131.6509408  63.7230000  76.4549408 131.1739408  63.8460000
  75.4639408 132.0589408  64.5730000  73.6209408 135.0579408  71.2560000
  72.8359408 135.3699408  71.7060000  73.5009408 135.3309408  70.3470000
  66.7349408 130.4089408  76.9120000  67.6709408 130.2119408  76.8740000
  66.3309408 129.5979408  77.2210000  69.1019408 139.7299408  82.1000000
  69.8669408 139.3959408  81.6300000  69.3469408 140.6199408  82.3550000
  68.8879408 140.4159408  61.5990000  68.2829408 139.7779408  61.9770000
  68.7719408 141.2019408  62.1330000  73.4439408 120.5639408  65.1250000
  74.2609408 120.5429408  65.6220000  73.7179408 120.5099408  64.2090000
  68.1309408 137.3219408  69.6840000  68.1119408 138.2399408  69.4110000
  67.9969408 137.3509408  70.6310000  71.8609408 128.8709408  60.8180000
  71.4729408 129.7019408  60.5460000  72.8049408 129.0259408  60.7920000
  74.0549408 140.7059408  79.8650000  73.1819408 140.5199408  80.2090000
  74.1139408 140.1809408  79.0660000  68.7819408 134.8269408  70.5120000
  67.8989408 134.6719408  70.8490000  68.7299408 135.6859408  70.0920000
  85.7759408 135.5769408  75.5950000  86.5949408 135.4519408  75.1160000
  85.8309408 134.9639408  76.3280000  74.7319408 125.0299408  66.7360000
  75.2879408 124.2539408  66.6670000  75.2679408 125.6689408  67.2060000
  74.8019408 135.4929408  76.8610000  74.9129408 136.3009408  76.3600000
  75.6729408 135.3059408  77.2110000  87.4529408 132.4809408  72.6510000
  86.9679408 131.6609408  72.7380000  88.3159408 132.2169408  72.3320000
  79.8039408 130.9529408  68.8190000  80.7069408 131.2619408  68.7410000
  79.2889408 131.5889408  68.3220000  73.6759408 132.0399408  68.3110000
  72.9579408 132.4469408  68.7970000  73.3909408 131.1369408  68.1740000
  64.4319408 119.9699408  69.1520000  64.9539408 120.3289408  69.8690000
  63.7079408 120.5879408  69.0490000  63.1979408 135.2869408  67.9950000
  62.5999408 135.4139408  67.2590000  62.7259408 134.7069408  68.5910000
  73.4919408 130.2479408  75.4210000  74.1179408 130.9619408  75.5410000
  74.0109408 129.5349408  75.0460000  88.8019408 126.7519408  75.1170000
  88.5949408 126.3399408  74.2790000  87.9779408 127.1509408  75.3980000
  66.3509408 132.5299408  80.8020000  65.7639408 132.6359408  80.0530000
  66.8079408 133.3679408  80.8690000  62.1939408 122.4329408  75.0200000
  61.9859408 122.0149408  74.1840000  62.7589408 123.1699408  74.7850000
  80.3539408 121.1919408  74.3940000  81.2449408 121.0649408  74.0680000
  80.3279408 122.1089408  74.6690000  72.9529408 138.1909408  64.7110000
  72.8259408 138.4779408  65.6150000  73.8859408 138.3269408  64.5450000
  71.2079408 133.2309408  69.6310000  71.4929408 133.1859408  70.5430000
  70.4689408 133.8389408  69.6400000  65.2889408 136.5969408  61.2440000
  66.1979408 136.4009408  61.4730000  65.0949408 136.0109408  60.5130000
  65.9609408 121.2959408  70.8390000  66.7089408 121.8909408  70.8830000
  65.2019408 121.8499408  71.0230000  74.0369408 129.3019408  70.0320000
  73.0859408 129.2279408  69.9500000  74.3769408 128.5189408  69.5980000
  73.8409408 135.9929408  79.9150000  73.3829408 135.6059408  79.1690000
  74.1529408 136.8389408  79.5910000  77.9259408 133.8949408  74.1400000
  76.9729408 133.9149408  74.2200000  78.2449408 134.1439408  75.0080000
  77.9639408 124.7779408  60.3340000  77.0519408 125.0459408  60.4500000
  78.1979408 124.3589408  61.1630000  66.0819408 131.7559408  63.1260000
  65.2619408 132.2489408  63.0890000  66.7199408 132.3779408  63.4750000
  80.7849408 131.9599408  77.6010000  81.3309408 131.2469408  77.2700000
  80.9109408 132.6709408  76.9720000  76.0959408 130.7469408  69.5820000
  75.3069408 130.3579408  69.9590000  76.3329408 130.1619408  68.8630000
  71.8799408 131.9409408  63.1400000  71.5959408 131.9629408  64.0530000
  72.2839408 131.0799408  63.0340000  70.6029408 138.1769408  72.3180000
  69.6709408 138.0139408  72.4610000  70.6839408 139.1309408  72.3230000
  76.8019408 140.5669408  75.9690000  77.5409408 139.9729408  75.8380000
  76.7199408 141.0359408  75.1380000  66.3819408 123.8779408  66.2780000
  66.8239408 124.1609408  67.0780000  66.7769408 124.4079408  65.5850000
  77.8219408 130.6709408  84.7140000  77.0509408 130.2079408  84.3860000
  78.5589408 130.2549408  84.2680000  80.9929408 136.8169408  61.4860000
  81.3499408 137.6909408  61.3270000  80.4049408 136.9299408  62.2320000
  87.1529408 133.0869408  76.5300000  87.5009408 132.5009408  77.2020000
  86.4709408 132.5749408  76.0950000  88.4819408 130.9349408  69.6410000
  88.8959408 131.1749408  70.4700000  88.9019408 131.4979408  68.9910000
  74.8989408 146.5689408  68.8670000  74.8359408 146.8249408  69.7880000
  74.8469408 145.6129408  68.8800000  66.4319408 129.2409408  69.6680000
  65.6539408 129.7959408  69.6110000  66.1929408 128.4429408  69.1960000
  77.9739408 130.1959408  64.3400000  78.5639408 130.9399408  64.4650000
  78.2259408 129.5729408  65.0210000  74.5639408 131.3319408  72.5050000
  75.3129408 131.9219408  72.4160000  74.8419408 130.5249408  72.0710000
  65.8949408 139.3489408  70.4970000  65.2319408 139.5939408  71.1420000
  65.4229408 138.8129408  69.8600000  70.5329408 124.8369408  71.0850000
  70.4469408 125.5079408  70.4070000  71.3799408 125.0149408  71.4930000
  68.0019408 133.8009408  64.2870000  68.6839408 134.4149408  64.0160000
  67.9259408 133.9279408  65.2330000  68.5919408 140.0079408  71.6570000
  67.6919408 139.6829408  71.6220000  68.5009408 140.9549408  71.7650000
  68.5059408 149.5499408  64.7200000  69.2599408 149.8159408  64.1930000
  68.6619408 149.9459408  65.5770000  64.0379408 147.2559408  69.9530000
  64.9729408 147.0479408  69.9550000  63.9999408 148.1869408  69.7350000
  77.8569408 125.7969408  66.3200000  78.7739408 125.6119408  66.1180000
  77.3679408 125.4069408  65.5960000  84.8209408 127.4299408  68.6100000
  84.9309408 126.7309408  67.9650000  85.4989408 128.0679408  68.3900000
  69.6499408 131.8419408  67.8760000  70.4039408 132.2779408  68.2730000
  69.2779408 131.3139408  68.5820000  77.8409408 131.3329408  81.0730000
  77.5779408 130.4969408  81.4570000  77.0239408 131.8229408  80.9800000
  76.4069408 123.6289408  79.0480000  77.1099408 124.2789408  79.0450000
  76.1969408 123.5069408  79.9740000  71.6449408 128.1269408  83.6070000
  71.9199408 127.4939408  84.2710000  71.9309408 128.9729408  83.9510000
  78.3389408 128.6359408  77.0160000  78.1949408 129.4509408  77.4970000
  79.2549408 128.4159408  77.1850000  67.8239408 129.7049408  61.9020000
  68.6989408 129.3949408  62.1340000  67.3699408 129.7939408  62.7400000
  73.4879408 128.3599408  77.7820000  72.5719408 128.4729408  78.0380000
  73.7179408 129.1799408  77.3450000  87.1329408 133.4899408  66.5760000
  86.2129408 133.7239408  66.4540000  87.5309408 134.2739408  66.9540000
  65.3919408 129.8369408  81.5440000  64.4879408 130.0839408  81.7380000
  65.8819408 130.6569408  81.5990000  75.6989408 133.6459408  81.5090000
  74.9289408 134.2119408  81.4530000  75.7449408 133.3939408  82.4310000
  65.3759408 125.8509408  64.5400000  65.9379408 126.5929408  64.3170000
  65.1269408 126.0039408  65.4520000  81.4999408 140.8909408  81.6630000
  81.5299408 141.8449408  81.5890000  81.2169408 140.5929408  80.7990000
  76.1989408 132.7839408  84.3270000  76.9519408 132.3809408  84.7590000
  75.5079408 132.1229408  84.3830000  80.3079408 132.6819408  81.5200000
  79.5659408 132.7069408  82.1230000  80.0339408 133.2229408  80.7790000
  83.5869408 131.2759408  63.3410000  82.6949408 131.6219408  63.3230000
  84.1119408 131.9439408  62.9000000  67.8799408 146.0279408  83.7110000
  68.5289408 146.2299408  83.0370000  67.0729408 145.8609408  83.2240000
  74.9759408 135.1649408  83.9550000  75.6309408 135.7189408  83.5300000
  75.4869408 134.4979408  84.4130000  80.1269408 137.4139408  77.2570000
  80.8569408 138.0169408  77.1180000  80.2649408 137.0689408  78.1390000
  77.7229408 129.0149408  74.5310000  78.2079408 129.8399408  74.5330000
  77.7629408 128.7109408  75.4380000  77.0589408 124.2909408  63.6940000
  77.3229408 123.4279408  64.0130000  76.3329408 124.1129408  63.0950000
  72.1429408 133.0499408  83.4810000  72.7959408 133.1569408  82.7890000
  71.8279408 133.9369408  83.6530000  69.2999408 124.7489408  76.6790000
  68.4779408 124.7659408  76.1890000  69.0309408 124.7099408  77.5970000
  70.2849408 129.8869408  72.5980000  70.8409408 129.1149408  72.4900000
  70.1829408 129.9779408  73.5460000  88.8309408 127.2719408  62.2880000
  88.8699408 126.9779408  63.1980000  89.5399408 126.7969408  61.8530000
  77.8369408 125.8009408  78.3520000  78.7399408 125.6199408  78.0890000
  77.7859408 126.7559408  78.3950000  72.3099408 137.8379408  78.4750000
  71.5999408 137.7869408  77.8350000  72.9599408 138.4099408  78.0670000
  81.5769408 130.0929408  73.5580000  80.8019408 130.5149408  73.9290000
  81.6999408 130.5189408  72.7100000  65.6739408 143.6199408  60.0820000
  66.0949408 143.8689408  60.9050000  66.3839408 143.2649408  59.5480000
  63.0279408 138.2679408  61.4330000  63.1569408 139.2159408  61.4620000
  63.8729408 137.9189408  61.1520000  65.6639408 128.1749408  78.2520000
  66.2629408 127.8789408  78.9380000  65.1889408 127.3859408  77.9920000
  65.9109408 126.2639408  83.1760000  65.8639408 125.3079408  83.1610000
  65.2579408 126.5469408  82.5370000  63.5549408 132.7819408  63.2750000
  62.7219408 132.4139408  63.5720000  63.4619408 133.7249408  63.4110000
  80.1159408 123.8369408  75.0270000  80.6079408 124.5009408  74.5440000
  79.2639408 123.8059408  74.5920000  69.1499408 149.6889408  82.5040000
  69.9349408 150.2339408  82.5540000  69.1679408 149.3219408  81.6200000
  69.0229408 130.0999408  83.4030000  68.3649408 130.6929408  83.7660000
  68.5369408 129.3039408  83.1870000  62.6359408 129.1879408  72.6550000
  62.1249408 129.8089408  73.1730000  61.9839408 128.6069408  72.2650000
  70.1199408 121.7629408  63.4120000  69.5699408 121.8339408  62.6310000
  70.9739408 122.0939408  63.1340000  84.7679408 126.0699408  77.1460000
  83.8289408 126.0299408  76.9640000  85.1819408 125.7409408  76.3480000
  65.1569408 131.4689408  75.1180000  64.3929408 131.0489408  75.5120000
  65.9069408 131.0229408  75.5130000  76.3049408 137.8459408  78.6500000
  76.4699408 138.5339408  78.0040000  76.6669408 137.0539408  78.2540000
  71.4229408 121.4139408  82.3640000  71.7979408 121.2949408  83.2370000
  72.1729408 121.6199408  81.8060000  64.3739408 122.0349408  82.5920000
  65.0449408 122.5869408  82.9950000  63.7539408 122.6539408  82.2080000
  67.8019408 136.5439408  67.0640000  67.6149408 135.6139408  67.1890000
  67.8329408 136.9049408  67.9500000  72.7309408 132.2139408  78.9580000
  72.2289408 131.4239408  78.7610000  72.6519408 132.7509408  78.1690000
  67.4109408 128.2469408  82.5390000  67.0039408 127.3889408  82.6570000
  66.8979408 128.6629408  81.8460000  78.8269408 123.5309408  82.3500000
  78.8589408 122.6169408  82.6340000  79.3369408 123.5479408  81.5400000
  73.0339408 134.4019408  63.2410000  73.4299408 134.6769408  62.4150000
  72.6019408 133.5729408  63.0360000  74.6579408 121.6439408  84.3280000
  75.2989408 121.5509408  85.0330000  73.8909408 122.0299408  84.7510000
  69.2199408 130.8319408  80.8010000  68.2959408 130.9889408  80.6070000
  69.2279408 130.5439408  81.7140000  68.1889408 137.1529408  83.5900000
  69.0689408 137.0679408  83.9560000  67.9749408 138.0809408  83.6910000
  67.2109408 128.0059408  65.3860000  66.6419408 128.7579408  65.5510000
  67.9689408 128.1489408  65.9520000  90.1159408 128.1649408  71.4220000
  90.1929408 127.2509408  71.1470000  89.2939408 128.4639408  71.0340000
  81.0649408 129.6399408  62.0140000  81.5329408 129.0169408  62.5690000
  81.5449408 129.6309408  61.1850000  64.8949408 138.8529408  66.4910000
  65.2919408 139.6979408  66.7040000  65.4089408 138.5259408  65.7530000
  60.8779408 149.1329408  61.2170000  61.1779408 149.6449408  60.4660000
  61.0379408 148.2229408  60.9670000  66.9089408 124.5699408  75.4710000
  66.4269408 125.1219408  74.8560000  66.2819408 124.3849408  76.1700000
  76.1519408 136.8349408  66.9130000  75.4469408 136.5409408  66.3350000
  75.7099408 137.0769408  67.7270000  75.4429408 120.1609408  73.2290000
  76.1079408 119.5109408  73.4580000  75.5879408 120.8799408  73.8430000
  84.0269408 139.3799408  81.4100000  84.2849408 138.4959408  81.6720000
  83.1719408 139.5119408  81.8210000  74.3959408 138.1949408  70.7400000
  74.3709408 138.1429408  71.6950000  74.2869408 137.2889408  70.4480000
  64.5679408 132.7609408  83.3450000  64.5269408 133.7069408  83.4870000
  64.8839408 132.6679408  82.4460000  81.5419408 122.2789408  84.3060000
  81.1949408 122.1159408  83.4290000  81.4429408 121.4439408  84.7630000
  74.6329408 143.1429408  70.1660000  74.8209408 143.6079408  69.3500000
  74.7559408 142.2189408  69.9490000  75.3159408 132.0549408  76.3340000
  74.9349408 132.8129408  76.7780000  76.1729408 131.9419408  76.7450000
  82.2929408 137.8109408  83.8080000  82.1829408 137.0259408  84.3450000
  82.7159408 138.4419408  84.3890000  69.7159408 137.2639408  60.6440000
  70.4809408 136.8889408  60.2080000  70.0779408 137.7609408  61.3780000
  67.2109408 131.8149408  84.3940000  66.3699408 132.1359408  84.0660000
  67.5599408 132.5409408  84.9100000  60.1669408 128.8079408  80.3710000
  59.8829408 128.0049408  80.8070000  59.9809408 129.5029408  81.0020000
  71.3649408 129.9299408  78.7550000  70.7509408 129.2719408  78.4300000
  71.2129408 129.9549408  79.7000000  74.3869408 140.9349408  61.0510000
  73.5169408 141.2199408  60.7720000  74.8489408 140.7409408  60.2360000
  70.7769408 129.9669408  75.3550000  71.7099408 130.1599408  75.2610000
  70.7469408 129.1889408  75.9110000  79.8279408 135.7489408  73.0870000
  80.5869408 135.7009408  73.6680000  79.2939408 134.9909408  73.3260000
  88.4329408 121.3169408  77.7720000  88.3759408 120.3929408  78.0160000
  88.3789408 121.7879408  78.6040000  76.9629408 136.6139408  82.6300000
  76.8069408 137.5369408  82.8310000  77.8629408 136.5879408  82.3060000
  86.9299408 131.9079408  61.8610000  86.9209408 132.4829408  62.6270000
  87.6339408 131.2839408  62.0360000  75.8339408 123.3109408  61.4930000
  76.3929408 122.5349408  61.4550000  75.4889408 123.4019408  60.6050000
  60.8749408 123.4179408  83.9600000  60.5559408 122.5409408  83.7490000
  61.6379408 123.5389408  83.3940000  73.8929408 139.7199408  77.2500000
  73.8199408 140.5249408  76.7370000  74.7049408 139.3139408  76.9450000
  70.5189408 127.1779408  75.9270000  70.5439408 126.3239408  76.3590000
  70.1409408 126.9999408  75.0660000  75.9109408 147.6449408  80.9300000
  75.4609408 146.9469408  80.4540000  75.2979408 147.8989408  81.6190000
  67.9469408 127.0969408  79.7360000  67.9239408 126.1409408  79.7090000
  68.7869408 127.3059408  80.1460000  76.8989408 149.9439408  65.6780000
  76.7499408 149.2089408  66.2740000  76.6159408 149.6199408  64.8230000
  69.8299408 147.2289408  65.4010000  68.9329408 147.4469408  65.1470000
  70.3679408 147.5429408  64.6740000  61.1219408 126.0539408  69.6410000
  60.6489408 126.3209408  68.8530000  61.9209408 126.5809408  69.6320000
  71.1519408 142.9069408  80.7830000  71.1849408 141.9589408  80.9060000
  70.5209408 143.0349408  80.0740000  71.0869408 145.7069408  67.3250000
  70.8939408 146.1889408  68.1280000  70.7599408 146.2699408  66.6230000
  62.6749408 138.7829408  70.9760000  63.1839408 139.3299408  71.5740000
  63.0549408 138.9529408  70.1140000  73.9669408 135.5319408  65.7910000
  74.1179408 134.5939408  65.6770000  73.3829408 135.7699408  65.0710000
  62.1679408 124.6769408  72.0900000  61.6919408 125.0179408  71.3330000
  61.8439408 125.1909408  72.8290000  69.7219408 148.0699408  68.6160000
  69.4219408 148.0619408  67.7080000  69.1469408 148.6979408  69.0530000
  71.7279408 140.3879408  81.2710000  71.6209408 139.5149408  80.8940000
  72.3419408 140.2629408  81.9960000  88.0529408 145.8899408  72.2050000
  88.2489408 146.7309408  72.6180000  87.0989408 145.8779408  72.1250000
  73.8599408 126.7389408  62.4700000  73.0679408 127.2019408  62.1940000
  73.5509408 126.0939408  63.1060000  64.9999408 149.5199408  78.2440000
  65.1339408 149.6689408  79.1800000  64.6149408 150.3359408  77.9240000
  70.5059408 139.8669408  66.1100000  69.8559408 139.5139408  65.5030000
  69.9949408 140.3779408  66.7380000  73.0909408 125.1259408  64.6640000
  73.6829408 125.1169408  65.4160000  72.3979408 124.5079408  64.8970000
  63.3269408 144.6049408  79.3680000  64.2059408 144.2289408  79.3230000
  63.4169408 145.4729408  78.9750000  60.0379408 141.4779408  64.6990000
  60.9309408 141.1549408  64.5830000  59.4899408 140.8369408  64.2450000
  75.7609408 145.8819408  64.7460000  75.6409408 145.0999408  64.2060000
  74.9199408 145.9989408  65.1890000  74.2179408 140.3289408  73.1910000
  74.4609408 141.2159408  72.9250000  75.0449408 139.9189408  73.4450000
  77.6079408 141.4719408  81.4500000  77.1129408 142.1989408  81.8280000
  77.2049408 140.6879408  81.8230000  72.8429408 144.9729408  81.9030000
  72.4879408 144.2539408  81.3800000  73.3269408 145.5089408  81.2750000
  64.6779408 142.4899408  76.5850000  65.2769408 143.2359408  76.6160000
  65.2109408 141.7439408  76.8610000  65.7979408 141.3969408  66.7650000
  66.4539408 141.7799408  67.3470000  64.9819408 141.4349408  67.2640000
  77.4849408 147.6719408  67.7400000  76.6389408 147.2889408  67.9700000
  77.8719408 147.0489408  67.1250000  62.3099408 138.7869408  65.5240000
  61.6629408 138.6259408  66.2120000  63.1549408 138.6519408  65.9530000
  74.3059408 148.7819408  67.3720000  74.7559408 148.1469408  67.9280000
  73.9669408 148.2639408  66.6420000  84.3189408 144.7159408  74.1060000
  84.8969408 143.9829408  73.8980000  84.5489408 145.3919408  73.4680000
  66.4959408 138.9039408  62.3800000  65.9039408 139.5189408  61.9470000
  65.9969408 138.0889408  62.4350000  76.4369408 139.0669408  81.2430000
  76.5039408 138.3559408  80.6060000  75.6939408 139.5899408  80.9420000
  67.2649408 143.0889408  63.3920000  67.5729408 143.8519408  62.9040000
  67.6459408 143.1919408  64.2640000  70.3759408 143.4779408  77.1180000
  69.6279408 143.2069408  77.6500000  70.5139408 142.7509408  76.5100000
  75.4449408 145.1009408  74.0140000  76.2459408 145.2109408  73.5020000
  75.0809408 144.2679408  73.7140000  69.1669408 125.4379408  65.7480000
  68.8509408 125.6709408  64.8750000  69.4189408 124.5179408  65.6750000
  64.2729408 140.1469408  72.5690000  63.8439408 140.9559408  72.8460000
  65.0339408 140.0699408  73.1450000  63.2469408 135.4839408  63.2100000
  63.6359408 136.1419408  62.6340000  63.7999408 135.4919408  63.9910000
  64.1789408 137.7809408  68.9290000  64.2309408 138.1619408  68.0530000
  63.5919408 137.0319408  68.8310000  71.1639408 149.3629408  74.0990000
  71.9599408 149.0219408  74.5070000  70.8289408 150.0059408  74.7250000
  71.2709408 149.4239408  60.7540000  71.1439408 149.1009408  59.8620000
  70.7259408 150.2099408  60.8040000  70.1639408 134.3359408  77.9330000
  69.7059408 133.4989408  77.8530000  70.9369408 134.2409408  77.3770000
  66.7049408 144.8669408  67.0240000  67.3139408 144.3839408  66.4660000
  66.0519408 145.2189408  66.4190000  60.7809408 137.7779408  63.0700000
  61.3749408 137.8329408  63.8190000  61.3059408 138.0689408  62.3250000
  66.9129408 146.0559408  73.0170000  66.7609408 146.9919408  73.1450000
  67.8609408 145.9539408  73.1010000  69.9689408 145.5049408  71.5150000
  70.0609408 146.2039408  72.1630000  69.5309408 145.9229408  70.7730000
  72.8559408 122.0519408  69.6080000  73.6339408 121.5559408  69.8640000
  72.6389408 122.5739408  70.3800000  70.9059408 142.2719408  61.9450000
  70.8709408 141.3879408  61.5790000  70.4339408 142.8129408  61.3120000
  60.6149408 134.7429408  62.4330000  59.9859408 135.4539408  62.5520000
  61.4659408 135.1429408  62.6100000  75.8529408 143.8829408  67.9390000
  75.9139408 143.7729408  66.9900000  76.7569408 144.0099408  68.2250000
  67.6779408 135.6369408  78.2270000  67.3809408 135.6059408  79.1360000
  68.4549408 135.0779408  78.2080000  64.3649408 142.5619408  70.9050000
  63.8259408 143.0119408  71.5560000  65.0559408 143.1889408  70.6910000
  71.6299408 143.2589408  71.2250000  71.9139408 143.2529408  70.3110000
  70.9499408 143.9319408  71.2610000  63.3079408 142.3489408  74.1740000
  63.6449408 143.1049408  73.6930000  63.8179408 142.3319408  74.9840000
  80.0859408 123.0319408  61.4180000  80.4329408 122.3479408  60.8450000
  79.2249408 122.7079408  61.6830000  88.1769408 122.4219408  80.1510000
  87.3749408 122.2089408  80.6290000  88.4289408 123.2859408  80.4760000
  79.2209408 148.9019408  69.3070000  78.6819408 149.2899408  69.9960000
  78.5979408 148.6619408  68.6210000  60.7819408 136.6869408  75.9170000
  60.1779408 136.2529408  76.5200000  60.3069408 137.4619408  75.6180000
  66.7389408 144.1779408  69.9850000  66.8389408 145.0859408  70.2700000
  66.8689408 144.2079408  69.0370000  70.4329408 121.4439408  75.7220000
  70.5989408 121.4719408  76.6650000  70.7079408 122.3039408  75.4050000
  63.3309408 139.3729408  78.2010000  62.4419408 139.5659408  78.5000000
  63.8949408 139.6769408  78.9110000  86.3379408 128.5209408  74.7070000
  85.9319408 129.3879408  74.7270000  85.5999408 127.9109408  74.7000000
  63.1059408 141.9459408  68.1800000  63.4189408 142.7029408  68.6760000
  62.1519408 142.0229408  68.2010000  75.4369408 143.2539408  80.0090000
  76.0059408 143.1119408  79.2530000  75.0009408 142.4129408  80.1430000
  67.0619408 141.4499408  69.2770000  67.2629408 142.2119408  69.8210000
  66.5489408 140.8769408  69.8470000  72.0659408 148.8869408  69.7040000
  71.2279408 148.5389408  69.3980000  72.5209408 149.1529408  68.9050000
  71.2699408 146.0949408  76.5260000  71.8939408 146.0249408  75.8040000
  71.2699408 145.2259408  76.9290000  70.8659408 138.4719408  62.7640000
  70.6719408 139.4039408  62.8690000  71.5619408 138.2989408  63.3990000
  73.6439408 120.4429408  61.8470000  72.8629408 120.2199408  61.3410000
  73.6489408 121.3999408  61.8730000  63.1739408 120.5829408  64.5740000
  64.1289408 120.6499408  64.5680000  62.8779408 121.4079408  64.9580000
  69.4209408 141.4549408  67.9740000  68.8169408 141.4819408  68.7160000
  70.2109408 141.8929408  68.2920000  88.8549408 143.9129408  70.4620000
  88.1329408 143.2899408  70.3720000  88.5459408 144.5469408  71.1090000
  69.8059408 135.8759408  81.7940000  68.8959408 136.1509408  81.9020000
  69.7489408 134.9669408  81.5000000  67.9939408 141.3219408  74.6600000
  68.8919408 141.3319408  74.9910000  67.9779408 142.0019408  73.9870000
  85.4639408 145.1709408  68.5830000  84.5769408 145.4189408  68.3240000
  85.9009408 144.9499408  67.7600000  84.4759408 140.8279408  79.0240000
  85.3199408 141.0919408  78.6570000  84.7019408 140.2359408  79.7420000
  72.9509408 121.3049408  72.5350000  73.5739408 120.6049408  72.7320000
  72.1069408 120.9639408  72.8300000  89.8429408 146.8959408  68.9490000
  89.2369408 146.1979408  68.6960000  90.4319408 146.4839408  69.5810000
  73.2739408 146.0209408  65.5640000  73.0779408 145.8549408  66.4860000
  72.5129408 145.6839408  65.0920000  73.9679408 143.1959408  72.7510000
  73.0609408 143.1179408  72.4530000  74.4749408 143.3119408  71.9480000
  67.9659408 143.2009408  84.6000000  68.6309408 142.7009408  84.1270000
  67.9549408 144.0549408  84.1660000  88.8189408 148.9629408  79.5480000
  89.3499408 148.7979408  80.3270000  87.9169408 148.8389408  79.8420000
  67.1999408 122.1849408  79.7970000  67.7519408 121.4189408  79.6400000
  66.4489408 121.8439408  80.2840000  76.6659408 132.2829408  61.1970000
  76.1439408 133.0379408  60.9240000  76.2319408 131.9649408  61.9890000
  71.4439408 135.8639408  83.9440000  72.0879408 136.3889408  83.4680000
  70.7859408 135.6379408  83.2870000  74.5009408 132.8519408  65.8720000
  74.3729408 132.6739408  66.8040000  73.6179408 132.8409408  65.5020000
  70.8959408 139.7499408  69.9370000  70.1039408 139.8069408  70.4710000
  71.6099408 139.9329408  70.5480000  79.0259408 134.6979408  65.6060000
  79.1789408 135.5409408  66.0320000  78.8219408 134.0999408  66.3250000
  66.7689408 148.4729408  74.2330000  67.3599408 149.2059408  74.4070000
  65.9639408 148.6979408  74.6990000  87.3529408 120.3099408  72.8330000
  87.5099408 119.6729408  73.5300000  87.9369408 121.0399408  73.0390000
  72.1129408 138.3489408  67.7370000  71.7449408 138.5769408  68.5910000
  71.5649408 138.8179408  67.1070000  84.6629408 139.5749408  72.4850000
  84.9049408 138.8659408  73.0800000  84.1909408 139.1409408  71.7740000
  61.4539408 149.7109408  75.8930000  61.4329408 150.6619408  76.0040000
  62.2849408 149.5399408  75.4500000  66.8329408 140.5419408  77.8900000
  67.4509408 139.8449408  77.6710000  66.2749408 140.1639408  78.5700000
  85.2199408 134.8659408  61.3530000  85.3179408 134.0859408  60.8060000
  84.4369408 135.3009408  61.0120000  78.8679408 147.6099408  63.3490000
  79.7269408 147.3279408  63.6620000  78.2529408 147.2769408  64.0020000
  68.3579408 124.1779408  61.8600000  68.4489408 124.8209408  62.5630000
  67.5369408 123.7239408  62.0540000  71.2019408 148.7629408  63.4690000
  71.2119408 149.5939408  63.9450000  71.6049408 148.9659408  62.6240000
  66.1329408 143.5059408  80.1000000  66.3269408 143.2889408  79.1880000
  66.9599408 143.8419408  80.4480000  61.6809408 148.4499408  67.5820000
  62.3499408 147.9409408  67.1260000  60.8959408 147.9039408  67.5440000
  85.9239408 142.7609408  73.2040000  85.7279408 142.7439408  72.2670000
  86.0819408 141.8459408  73.4340000  79.3099408 146.6769408  74.0320000
  79.6109408 146.8749408  74.9190000  79.3619408 145.7229408  73.9680000
  63.3539408 144.7089408  69.0660000  63.7559408 145.5449408  69.3010000
  62.5179408 144.9489408  68.6650000  61.4129408 146.7549408  60.3960000
  62.1889408 147.0679408  59.9310000  61.2349408 145.8959408  60.0140000
  89.6089408 147.8679408  75.3230000  90.1049408 147.1339408  74.9590000
  90.2649408 148.5469408  75.4810000  82.3659408 134.6299408  68.6880000
  81.7399408 134.6659408  69.4110000  83.1379408 135.0919408  69.0160000
  61.5119408 139.0599408  73.6060000  60.8219408 139.4449408  73.0660000
  62.0049408 138.5029408  73.0030000  63.9449408 146.8669408  78.1460000
  63.7629408 146.8199408  77.2080000  64.4529408 147.6719408  78.2510000
  73.2799408 142.0519408  75.6120000  72.3279408 141.9589408  75.6370000
  73.5199408 141.8259408  74.7140000  72.9559408 141.3659408  66.3640000
  73.4859408 141.8059408  65.6990000  72.4029408 140.7609408  65.8690000
  63.4409408 126.1809408  61.9050000  64.0029408 126.8479408  61.5100000
  63.9759408 125.7989408  62.6010000  77.0119408 143.5979408  60.0990000
  77.4669408 144.3679408  60.4400000  76.1409408 143.9179408  59.8630000
  78.2589408 132.5979408  67.4360000  77.7069408 131.9699408  66.9700000
  77.6589408 133.0499408  68.0290000  60.1369408 123.5589408  65.8370000
  59.9919408 122.6449408  65.5950000  60.0729408 123.5669408  66.7920000
  86.3759408 143.1479408  82.1470000  85.9069408 143.8409408  81.6830000
  87.2419408 143.1299408  81.7400000  72.6159408 142.0489408  84.5270000
  72.7129408 141.7699408  85.4380000  73.1399408 141.4229408  84.0270000
  64.7479408 146.4299408  62.0810000  64.8309408 145.7089408  62.7050000
  63.9279408 146.8609408  62.3190000  69.2759408 146.4629408  74.7030000
  69.7309408 146.2569408  75.5190000  69.1089408 147.4049408  74.7520000
  83.3719408 149.3539408  76.9710000  83.3079408 148.3989408  76.9860000
  82.9949408 149.6059408  76.1290000  76.2559408 143.4489408  82.4580000
  75.9049408 143.5529408  81.5740000  75.4959408 143.5559408  83.0320000
  66.9949408 135.9949408  80.7340000  66.4209408 135.7369408  81.4560000
  66.9939408 136.9519408  80.7580000  76.4109408 147.9309408  76.0400000
  76.7929408 148.4529408  76.7440000  76.9819408 148.0879408  75.2870000
  74.1419408 144.1589408  84.0840000  73.6309408 143.3779408  84.2940000
  73.5819408 144.6599408  83.4910000  73.5379408 136.9969408  82.3460000
  74.1009408 136.3869408  82.8230000  73.4289408 136.5979408  81.4830000
  73.4829408 139.4799408  83.5240000  73.6019408 138.6709408  83.0260000
  74.1959408 139.4769408  84.1620000  65.5179408 140.8639408  60.6340000
  64.6129408 140.9029408  60.3240000  65.8689408 141.7369408  60.4600000
  74.6979408 145.7839408  79.6430000  74.8279408 145.7939408  78.6940000
  74.6369408 144.8559408  79.8670000  65.6269408 145.5319408  82.0670000
  66.1349408 145.9269408  81.3580000  65.2669408 144.7309408  81.6870000
  84.5209408 137.0009408  82.3890000  85.1209408 136.3069408  82.6620000
  83.6929408 136.7869408  82.8180000  70.6369408 141.0749408  75.7480000
  71.0509408 140.3259408  76.1760000  70.8889408 140.9959408  74.8280000
  74.6019408 148.8039408  83.5100000  75.1489408 148.3629408  84.1610000
  74.6489408 149.7299408  83.7450000  77.2359408 145.8399408  84.2300000
  77.9919408 145.7569408  83.6490000  76.6439408 145.1399408  83.9550000
  76.3829408 145.0279408  76.5230000  75.9809408 144.9789408  75.6560000
  76.6939408 145.9299408  76.5930000  59.8979408 145.6919408  82.9550000
  59.7849408 144.8959408  83.4740000  60.8379408 145.7319408  82.7780000
  68.7329408 145.2859408  62.7840000  69.4529408 145.3559408  62.1580000
  68.2929408 146.1349408  62.7390000  86.7709408 123.6649408  82.7270000
  86.7729408 122.8369408  83.2070000  87.3549408 124.2339408  83.2270000
  69.9189408 123.5539408  81.8240000  69.1149408 123.4609408  82.3350000
  70.5089408 122.8899408  82.1800000  68.4839408 132.6569408  72.7750000
  68.7579408 133.2109408  72.0450000  69.2489408 132.1129408  72.9640000
  64.8689408 142.0059408  64.4930000  65.4839408 142.3369408  63.8380000
  65.3879408 141.9349408  65.2950000  61.1839408 143.8679408  62.2820000
  61.7039408 143.3719408  61.6500000  61.6219408 143.7219408  63.1200000
  61.2759408 140.9209408  82.3260000  61.5259408 140.2529408  81.6880000
  61.9619408 141.5849408  82.2600000  67.4129408 146.2019408  80.0570000
  67.4249408 146.6489408  79.2110000  68.2419408 146.4469408  80.4690000
  81.6459408 145.8579408  79.2480000  81.8839408 145.4889408  78.3980000
  81.1379408 145.1669408  79.6750000  86.5009408 143.4099408  63.8900000
  87.2679408 143.2959408  63.3290000  86.1529408 144.2679408  63.6490000
  72.1069408 148.3369408  82.1520000  72.8629408 148.3479408  82.7390000
  71.9139408 149.2609408  81.9920000  66.9049408 149.6589408  84.4020000
  67.4049408 149.1249408  85.0190000  67.5369408 149.8999408  83.7250000
  75.8789408 122.1039408  81.6990000  75.5149408 121.9559408  82.5720000
  76.7829408 121.7959408  81.7610000  68.8949408 141.6709408  79.8570000
  68.2309408 141.5909408  79.1720000  68.9859408 140.7849408  80.2080000
  79.3409408 139.3989408  80.3370000  79.0289408 139.1119408  79.4790000
  78.5439408 139.5879408  80.8320000  73.0649408 121.5539408  80.0000000
  73.9649408 121.6039408  80.3230000  72.9399408 120.6309408  79.7800000
  70.1359408 142.0139408  83.1660000  70.2959408 142.4989408  82.3560000
  70.9959408 141.9489408  83.5810000  78.4869408 128.0279408  61.6070000
  79.1999408 128.3819408  62.1380000  78.0509408 128.7999408  61.2450000
  74.4529408 140.9099408  63.7780000  74.3679408 140.7669408  62.8350000
  75.0229408 140.2019408  64.0770000  67.1399408 147.5469408  77.6840000
  66.8289408 147.2759408  76.8200000  66.5409408 148.2459408  77.9460000
  75.7979408 148.7229408  63.2530000  75.6619408 147.7969408  63.0530000
  75.1299408 149.1799408  62.7420000  69.0859408 121.1759408  61.1750000
  68.4019408 120.5059408  61.1510000  68.6729408 121.9539408  60.8020000
  68.0329408 149.1679408  70.5370000  68.6119408 148.8459408  71.2270000
  67.5109408 149.8489408  70.9610000  72.8329408 136.8609408  73.8650000
  72.4649408 135.9809408  73.9370000  72.1939408 137.3459408  73.3420000
  65.5019408 120.1759408  80.8970000  65.1519408 120.8029408  81.5300000
  65.3639408 119.3209408  81.3060000  74.6709408 127.7959408  65.3550000
  75.3629408 127.6749408  64.7050000  74.3999408 126.9069408  65.5840000
  72.2429408 126.3459408  67.8770000  73.0639408 125.9189408  67.6340000
  71.5769408 125.9019408  67.3520000  84.9609408 135.1169408  66.4150000
  84.0719408 135.3439408  66.1410000  85.4919408 135.8699408  66.1570000
  79.3769408 127.5459408  72.7920000  79.5639408 127.9789408  71.9590000
  78.9799408 128.2279408  73.3340000  89.9389408 132.9329408  80.1570000
  89.2409408 133.5489408  79.9330000  89.5489408 132.0699408  80.0180000
  83.4369408 128.0999408  74.6000000  83.0629408 128.4679408  73.7990000
  83.0709408 127.2169408  74.6520000  87.4789408 123.9939408  70.6530000
  87.3369408 124.2939408  69.7560000  87.7139408 123.0699408  70.5640000
  83.8419408 127.9109408  71.1330000  83.2649408 128.4849408  70.6300000
  84.5029408 127.6239408  70.5030000  84.1399408 121.3499408  70.9420000
  83.2239408 121.4689408  71.1920000  84.1099408 120.7419408  70.2040000
  60.0609408 126.7279408  77.5830000  60.7789408 127.3319408  77.7720000
  59.7179408 127.0209408  76.7390000  79.3879408 132.0239408  61.7080000
  78.4449408 132.1189408  61.5730000  79.5609408 131.0969408  61.5410000
  78.6229408 124.8899408  72.5080000  79.1929408 124.4829408  71.8550000
  78.9969408 125.7609408  72.6440000  87.7609408 122.7849408  63.9490000
  88.2159408 122.0179408  63.6010000  87.0409408 122.9349408  63.3370000
  75.8699408 127.0169408  60.6600000  75.2029408 126.8519408  61.3270000
  76.4569408 127.6569408  61.0610000  85.9399408 125.4359408  74.7680000
  86.1589408 125.8389408  73.9280000  85.7629408 124.5199408  74.5560000
  85.4509408 126.9699408  65.4990000  84.8859408 126.2069408  65.3780000
  85.7639408 127.1789408  64.6180000  60.4629408 142.8909408  73.2580000
  60.2129408 141.9829408  73.0880000  61.3599408 142.8359408  73.5870000
  74.7979408 131.2589408  80.4950000  74.1209408 131.7319408  80.0110000
  75.3779408 131.9449408  80.8280000  78.4659408 143.8039408  69.1880000
  78.8379408 144.6159408  68.8460000  78.9149408 143.1109408  68.7040000
  76.7079408 127.0059408  63.8860000  77.1969408 127.5149408  63.2390000
  76.7849408 126.0999408  63.5860000  65.6159408 123.9159408  77.9620000
  66.1299408 123.4149408  78.5940000  65.1099408 123.2559408  77.4870000
  85.2969408 125.6169408  79.7390000  86.1719408 125.2819408  79.5430000
  84.9219408 125.8239408  78.8830000  70.5079408 127.1349408  80.9140000
  71.3479408 126.7929408  80.6060000  70.6289408 127.2549408  81.8560000
  65.4309408 128.9249408  73.3460000  64.5449408 128.8439408  73.6980000
  65.4069408 129.7229408  72.8170000  89.5329408 120.6999408  63.3760000
  90.1959408 120.7629408  62.6890000  89.1429408 119.8339408  63.2540000
  79.1209408 131.3209408  73.8360000  78.7309408 131.3989408  72.9650000
  78.7629408 132.0599408  74.3270000  83.4509408 136.6139408  77.9200000
  83.0099408 137.2459408  77.3520000  82.8429408 136.4799408  78.6470000
  61.2429408 145.3819408  71.0890000  61.8839408 144.7989408  70.6820000
  60.4409408 144.8619408  71.1370000  60.5589408 123.4369408  62.1060000
  60.9039408 123.9419408  61.3700000  59.6199408 123.3699408  61.9320000
  85.4529408 143.0009408  66.3470000  86.1639408 142.5919408  66.8410000
  85.8259408 143.1649408  65.4810000  79.8289408 132.1619408  64.8400000
  80.2879408 132.3219408  65.6640000  79.5549408 133.0299408  64.5450000
  85.5609408 131.1319408  75.4750000  85.1189408 130.5969408  76.1340000
  84.8589408 131.6419408  75.0700000  61.6959408 134.5629408  65.6540000
  61.0739408 134.5129408  64.9270000  61.7619408 133.6639408  65.9750000
  86.7429408 123.6139408  77.8620000  86.4659408 124.0829408  77.0750000
  86.0469408 122.9769408  78.0200000  81.6259408 139.4869408  61.2030000
  82.4039408 139.0829408  61.5860000  81.3859408 140.1789408  61.8190000
  89.2179408 143.7659408  65.8380000  89.3659408 144.3189408  65.0710000
  89.4309408 142.8809408  65.5410000  81.2669408 120.7559408  68.5830000
  81.3999408 121.0999408  69.4660000  80.5919408 120.0849408  68.6870000
  87.0209408 120.6149408  83.3560000  86.1119408 120.3729408  83.1770000
  87.4589408 119.7839408  83.5400000  87.0549408 140.3509408  73.5330000
  86.2059408 140.0659408  73.1960000  87.4329408 139.5649408  73.9270000
  83.3629408 125.0449408  71.8150000  83.7649408 125.8809408  71.5770000
  84.1039408 124.4649408  71.9930000  84.9759408 121.0289408  80.1130000
  84.6729408 121.3969408  79.2830000  84.4759408 121.4979408  80.7810000
  82.5319408 143.9129408  76.2690000  83.3199408 143.8259408  76.8050000
  82.8589408 144.0669408  75.3830000  86.3219408 127.4929408  83.9420000
  86.3019408 126.7529408  84.5480000  87.1049408 127.9849408  84.1900000
  60.1739408 131.8329408  71.6060000  60.4409408 131.6049408  72.4960000
  60.8999408 132.3529408  71.2630000  85.7369408 139.1459408  68.1800000
  84.8499408 139.1279408  68.5390000  86.1869408 138.4239408  68.6170000
  76.6539408 129.5689408  67.1000000  76.2859408 129.1019408  66.3490000
  77.5579408 129.2609408  67.1550000  78.3429408 145.7469408  66.0430000
  78.8659408 144.9999408  65.7510000  77.5969408 145.7659408  65.4440000
  64.7929408 145.8129408  65.2480000  64.3529408 146.6369408  65.4600000
  64.0799408 145.1949408  65.0880000  83.2419408 143.1659408  70.4920000
  82.9709408 143.7249408  69.7630000  82.5509408 142.5069408  70.5570000
  85.7379408 146.5139408  76.0000000  85.5399408 145.6189408  75.7260000
  84.8859408 146.8929408  76.2160000  60.0309408 126.3349408  67.2890000
  59.4529408 125.8939408  66.6650000  60.7089408 126.7369408  66.7450000
  65.4109408 121.6389408  74.1010000  66.3529408 121.5459408  73.9540000
  65.1199408 122.2449408  73.4200000  72.0409408 123.7889408  60.3090000
  71.4489408 124.5119408  60.1020000  72.7159408 123.8299408  59.6310000
  84.4599408 122.0869408  77.5660000  84.6979408 122.1839408  76.6440000
  83.9199408 121.2969408  77.5930000  68.5499408 124.3989408  79.4280000
  69.1569408 124.0959408  80.1040000  67.8149408 123.7869408  79.4750000
  81.2339408 121.7299408  71.0500000  81.0569408 121.7479408  71.9900000
  81.0979408 122.6329408  70.7630000  82.1169408 126.2239408  76.4610000
  81.5759408 126.8179408  76.9810000  81.6809408 126.1839408  75.6100000
  87.9949408 121.5439408  69.2960000  87.6689408 120.7739408  69.7610000
  87.5859408 121.4939408  68.4320000  64.1849408 139.2609408  75.5620000
  63.2749408 139.4589408  75.3410000  64.2369408 139.3929408  76.5080000
  81.5719408 136.0879408  79.4610000  81.2589408 136.5549408  80.2350000
  82.0279408 135.3219408  79.8100000  84.5889408 132.8039408  78.0590000
  85.3309408 132.2919408  77.7360000  84.9889408 133.5189408  78.5550000
  62.6959408 124.0899408  81.8710000  62.3059408 123.5869408  81.1560000
  62.9999408 124.8979408  81.4560000  89.8669408 142.4849408  83.7190000
  90.5199408 142.0109408  83.2050000  89.1229408 142.5889408  83.1250000
  82.9719408 149.7709408  66.6800000  82.3179408 150.1079408  67.2920000
  83.6439408 149.3789408  67.2390000  90.0319408 129.3559408  67.3470000
  89.0959408 129.2539408  67.5190000  90.1719408 128.9109408  66.5120000
  72.1399408 127.4559408  72.2220000  73.0799408 127.4309408  72.0430000
  71.9669408 126.6499408  72.7080000  82.2569408 132.3619408  71.4830000
  81.7519408 133.1539408  71.2990000  82.2079408 131.8529408  70.6740000
  87.9939408 128.9349408  78.7130000  88.8849408 128.7869408  79.0320000
  87.4419408 128.4079408  79.2910000  62.6369408 128.9269408  68.6340000
  63.0599408 129.1289408  69.4690000  61.7709408 129.3279408  68.7010000
  61.9669408 128.2519408  78.4270000  62.8179408 128.6559408  78.5950000
  61.4089408 128.5619408  79.1400000  87.5039408 125.9579408  72.6760000
  87.6349408 125.1329408  72.2080000  87.4329408 126.6169408  71.9850000
  66.0659408 123.5049408  63.3350000  65.7129408 124.3689408  63.5490000
  65.3759408 123.0859408  62.8200000  80.1629408 123.2489408  67.1740000
  80.7889408 122.6829408  67.6270000  79.4289408 123.3299408  67.7820000
  76.8479408 149.6619408  70.6200000  76.3209408 149.0759408  71.1630000
  76.2789408 149.8849408  69.8840000  65.8869408 130.2809408  65.3640000
  65.6359408 130.8369408  66.1020000  65.8729408 130.8659408  64.6070000
  82.0509408 147.8479408  81.3780000  82.2919408 147.3129408  80.6220000
  82.4079408 148.7149408  81.1820000  86.0049408 148.4509408  80.5770000
  85.3879408 147.8689408  80.1320000  85.6789408 149.3319408  80.3920000
  75.9519408 135.9449408  60.6750000  75.0699408 135.6069408  60.8280000
  76.3909408 135.2529408  60.1800000  82.1649408 127.7679408  68.6350000
  83.0789408 127.4839408  68.6030000  82.1279408 128.5239408  68.0490000
  84.3869408 130.8979408  67.2380000  84.6949408 131.3449408  68.0260000
  85.0989408 131.0059408  66.6070000  80.4669408 147.5979408  76.5020000
  80.0149408 148.4079408  76.7400000  79.9129408 146.9009408  76.8520000
  77.1799408 144.4859408  71.5940000  77.1339408 144.0919408  70.7230000
  77.8769408 145.1389408  71.5260000  87.1109408 127.9229408  70.7590000
  86.6699408 128.6599408  71.1820000  87.2859408 128.2279408  69.8680000
  84.4309408 128.2329408  60.1660000  84.9999408 128.8329408  59.6840000
  84.9499408 127.9689408  60.9260000  87.6649408 137.8339408  80.4340000
  87.0099408 137.9209408  81.1270000  87.7929408 138.7259408  80.1110000
  80.4459408 125.7249408  65.9510000  80.6899408 124.9389408  66.4390000
  81.2809408 126.0999408  65.6680000  64.0989408 137.2339408  80.9040000
  63.5579408 137.6299408  80.2210000  64.7849408 137.8809408  81.0720000
  83.0409408 145.6989408  67.7480000  82.2169408 146.1149408  67.4950000
  83.0589408 144.8799408  67.2530000  75.0709408 123.1099408  71.9730000
  75.9309408 122.7019408  71.8700000  74.5769408 122.4959408  72.5170000
  61.2549408 126.8109408  74.1630000  60.3669408 126.7379408  74.5100000
  61.5479408 127.6809408  74.4330000  61.2039408 138.3319408  68.1590000
  61.7869408 138.4599408  68.9080000  60.4139408 137.9419408  68.5330000
  70.8509408 138.0429408  80.5640000  71.5169408 137.8769408  79.8970000
  70.6929408 137.1879408  80.9640000  85.3289408 133.5029408  71.5810000
  85.0329408 134.2309408  72.1270000  86.1189408 133.1829408  72.0170000
  87.1119408 147.8559408  74.3000000  86.6299408 147.3489408  74.9530000
  88.0099408 147.8809408  74.6300000  84.7879408 122.1149408  65.8990000
  84.1839408 121.3719408  65.9120000  85.6579408 121.7159408  65.9040000
  79.4179408 135.1679408  76.0930000  80.2329408 134.6729408  76.0060000
  79.6999408 136.0539408  76.3210000  87.7659408 133.5989408  63.8470000
  87.7389408 133.8419408  64.7720000  87.9009408 134.4269408  63.3850000
  65.1689408 134.5189408  76.3780000  65.8409408 134.4369408  77.0540000
  64.4199408 134.9079408  76.8290000  84.5049408 123.7859408  68.3370000
  84.6659408 123.1259408  67.6630000  85.3689408 123.9629408  68.7110000
  87.8919408 135.9599408  61.8140000  87.0629408 135.4949408  61.6950000
  88.2699408 136.0039408  60.9360000  81.4209408 125.9589408  73.7260000
  80.7449408 126.4539408  73.2630000  82.0389408 125.6999408  73.0420000
  64.4059408 130.8699408  61.0480000  63.6999408 131.4429408  61.3470000
  65.1239408 131.0339408  61.6600000  77.9489408 137.1749408  71.2960000
  77.9059408 136.2389408  71.0990000  78.8179408 137.2979408  71.6800000
  85.4809408 131.9639408  69.4060000  85.1199408 132.5119408  70.1030000
  86.2799408 131.5939408  69.7810000  87.2379408 124.9699408  68.0610000
  87.3909408 125.8909408  68.2740000  87.5609408 124.8749408  67.1650000
  76.7859408 138.4209408  61.6810000  76.7219408 137.5299408  61.3370000
  77.4129408 138.8559408  61.1040000  82.8489408 133.5719408  79.9600000
  83.5609408 133.2709408  79.3950000  82.1069408 133.0129408  79.7290000
  83.2589408 120.4689408  74.2250000  83.7039408 119.7619408  73.7580000
  83.9489408 121.1049408  74.4120000  68.5139408 138.9249408  64.6940000
  68.4449408 137.9949408  64.9100000  67.8739408 139.0569408  63.9950000
  60.9149408 132.1979408  63.5130000  60.7669408 132.8599408  62.8380000
  60.2449408 131.5339408  63.3490000  76.2619408 125.6629408  71.8050000
  77.1559408 125.3529408  71.9450000  75.7269408 124.8699408  71.8260000
  85.2609408 122.5219408  75.1500000  86.1599408 122.1979408  75.2140000
  85.1129408 122.6349408  74.2110000  86.0369408 129.7699408  72.4210000
  86.3529408 129.1019408  73.0300000  85.0999408 129.8379408  72.6050000
  83.0209408 128.4339408  63.5050000  83.2149408 129.3699408  63.4500000
  83.4379408 128.1499408  64.3190000  78.3969408 121.7669408  64.5070000
  78.1719408 121.0319408  65.0770000  79.3529408 121.8069408  64.5340000
  89.4079408 140.4649408  72.4830000  88.5159408 140.4729408  72.8300000
  89.2959408 140.4509408  71.5330000  79.9099408 128.3669408  70.0660000
  79.9099408 129.2509408  69.6990000  80.6139408 127.9149408  69.6030000
  82.3429408 137.8229408  73.7280000  82.4789408 138.5569408  74.3260000
  81.4959408 137.9999408  73.3180000  78.5539408 138.9259408  84.6820000
  78.7939408 138.2999408  85.3660000  79.3529408 139.4279408  84.5250000
  60.9789408 131.7839408  66.4660000  60.8059408 131.5689408  65.5490000
  60.8379408 130.9619408  66.9360000  78.5449408 126.2349408  68.9460000
  78.6869408 126.3049408  68.0020000  78.8589408 127.0669408  69.2990000
  77.5829408 122.1169408  71.6990000  77.5359408 121.9249408  72.6360000
  77.4419408 121.2719408  71.2740000  83.0879408 126.0449408  62.2860000
  83.1179408 126.9629408  62.5550000  82.5769408 126.0479408  61.4770000
  79.4299408 149.0179408  60.8690000  80.3869408 149.0099408  60.8630000
  79.1899408 148.4979408  61.6360000  89.4029408 141.3029408  76.8030000
  89.1189408 142.1149408  76.3830000  90.2919408 141.4879408  77.1050000
  89.9999408 123.3119408  68.7350000  89.2879408 122.6869408  68.8720000
  89.6239408 124.1599408  68.9690000  67.9229408 120.9289408  67.0610000
  68.3859408 121.4039408  67.7510000  67.6119408 121.6119408  66.4670000
  86.0629408 126.2019408  62.8730000  86.7759408 126.4759408  62.2960000
  85.4759408 125.7009408  62.3070000  85.4119408 140.8149408  61.5320000
  85.4999408 140.9999408  60.5970000  86.2239408 140.3649408  61.7650000
  88.3659408 125.4669408  79.3010000  88.8039408 125.9929408  78.6320000
  88.0599408 124.6899408  78.8330000  80.9419408 124.3839408  77.7550000
  80.5819408 123.9059408  77.0080000  81.5239408 125.0359408  77.3640000
  89.4049408 129.7769408  61.2160000  89.7829408 129.6169408  60.3520000
  88.8879408 128.9919408  61.4010000  81.4199408 133.2069408  84.2540000
  81.6209408 132.3409408  84.6100000  81.2789408 133.0559408  83.3200000
  89.1759408 130.3779408  82.4850000  88.2839408 130.5879408  82.2080000
  89.0939408 130.1619408  83.4140000  87.5159408 131.6489408  78.8270000
  87.5849408 130.6959408  78.7670000  87.6049408 131.8379408  79.7610000
  88.1189408 133.0759408  83.9840000  88.7619408 132.6759408  84.5710000
  87.4529408 133.4369408  84.5690000  81.7639408 133.3609408  62.3840000
  81.7739408 133.7069408  61.4920000  80.9559408 132.8499408  62.4340000
  88.0309408 145.7699408  60.2010000  87.6519408 146.3839408  59.5710000
  88.7909408 146.2309408  60.5560000  62.9169408 130.2559408  82.9200000
  62.3259408 130.8239408  82.4250000  63.4999408 130.8599408  83.3800000
  81.1939408 124.9999408  84.4080000  80.3499408 125.2639408  84.7730000
  81.2559408 124.0639408  84.5980000  88.7599408 148.1839408  63.0480000
  88.8759408 147.2849408  63.3560000  89.4779408 148.3219408  62.4310000
  62.6489408 127.0719408  83.3300000  62.9159408 127.8839408  82.8980000
  62.1039408 126.6239408  82.6820000  82.4329408 144.4709408  60.8190000
  81.6569408 144.3989408  61.3750000  82.5059408 143.6149408  60.3970000
  87.0089408 127.7539408  80.9100000  87.1639408 127.5669408  81.8360000
  86.1749408 127.3249408  80.7160000  79.5569408 139.2589408  64.7920000
  79.8279408 138.5009408  64.2750000  79.5719408 139.9889408  64.1730000
  86.9399408 130.5709408  65.5480000  87.2969408 131.4359408  65.7460000
  87.5429408 130.2049408  64.9000000  82.1869408 127.3489408  83.2340000
  82.6329408 127.2299408  82.3960000  81.9849408 126.4599408  83.5270000
  83.0549408 146.8219408  75.9560000  82.1179408 146.8199408  76.1500000
  83.1779408 146.0819408  75.3610000  86.0829408 134.9759408  82.9120000
  86.8299408 134.5689408  82.4730000  86.1679408 134.7089408  83.8270000
  61.7139408 124.7479408  64.2270000  61.3929408 124.3309408  63.4270000
  61.0859408 124.4889408  64.9010000  86.7119408 148.8939408  61.2240000
  87.5319408 148.5429408  61.5710000  86.3319408 149.3829408  61.9540000
  84.2559408 143.5429408  78.3680000  84.2759408 142.7569408  78.9150000
  85.1489408 143.6239408  78.0320000  84.1759408 138.5089408  61.7660000
  84.5339408 139.3739408  61.5650000  84.8279408 138.1069408  62.3410000
  85.2449408 135.1359408  79.2390000  84.6809408 135.3399408  79.9860000
  85.0279408 135.8009408  78.5860000  87.8889408 122.9389408  60.7890000
  87.1389408 122.3659408  60.9500000  87.5709408 123.8159408  61.0000000
  77.5889408 125.9449408  81.8650000  77.9269408 125.0509408  81.9150000
  78.2399408 126.4199408  81.3480000  80.0679408 126.6019408  80.6770000
  80.4109408 125.7399408  80.4420000  80.8469408 127.1369408  80.8290000
  89.4139408 123.1659408  76.0720000  89.2369408 122.3849408  76.5970000
  88.9069408 123.8589408  76.4960000  77.8799408 127.6249408  84.1220000
  77.7579408 126.6759408  84.0920000  77.0159408 127.9709408  84.3480000
  84.0009408 124.7069408  65.0710000  83.8849408 124.5229408  64.1390000
  84.2479408 123.8649408  65.4530000  88.6979408 124.9809408  83.9730000
  89.2289408 125.6649408  84.3820000  89.2709408 124.2149408  83.9480000
  69.8899408 131.8059408  77.1790000  70.2009408 131.2239408  77.8720000
  70.1229408 131.3559408  76.3660000  62.2539408 135.9619408  84.7120000
  61.4929408 135.4689408  84.4070000  63.0069408 135.4519408  84.4130000
  80.0029408 129.2039408  83.4090000  80.8009408 128.6759408  83.4560000
  79.3039408 128.6049408  83.6730000  83.6059408 132.7209408  74.1930000
  83.3069408 132.6279408  73.2890000  83.8659408 133.6389408  74.2670000
  83.0969408 127.0939408  80.7320000  83.5719408 127.7899408  80.2780000
  83.5829408 126.2959408  80.5220000  81.2829408 124.2129408  70.2370000
  82.1709408 124.4309408  70.5200000  80.9569408 125.0169408  69.8310000
  65.2779408 131.5559408  67.5480000  64.8449408 130.9229408  68.1220000
  65.5749408 132.2489408  68.1370000  66.0519408 126.0389408  72.9900000
  66.7619408 125.9259408  72.3580000  65.9799408 126.9859408  73.1040000
  86.9689408 146.1229408  82.1750000  87.8909408 146.2139408  82.4190000
  86.8059408 146.8519408  81.5770000  60.5089408 129.7659408  73.8980000
  59.8269408 129.7809408  74.5700000  60.2249408 129.0889408  73.2830000
  82.0069408 133.9469408  76.1180000  82.6479408 133.3789408  75.6900000
  82.4899408 134.3509408  76.8390000  63.1369408 135.9089408  77.4420000
  63.2879408 136.7359408  77.8990000  62.3239408 136.0479408  76.9560000
  84.1139408 123.7159408  81.1230000  84.5879408 124.4759408  80.7840000
  84.5419408 123.5189408  81.9560000  73.7419408 126.4529408  75.6390000
  74.2449408 126.8479408  74.9270000  73.4279408 127.1979408  76.1520000
  63.9139408 134.3159408  80.0960000  63.3239408 135.0459408  80.2810000
  63.8699408 134.2069408  79.1460000  79.3529408 129.0949408  79.9650000
  78.9699408 129.8979408  80.3180000  79.1119408 128.4159408  80.5960000
  77.2159408 122.2419408  74.2630000  77.4569408 121.6839408  75.0030000
  76.9959408 123.0849408  74.6600000  66.1759408 123.6459408  83.8610000
  67.0319408 123.4339408  84.2340000  65.6269408 123.8449408  84.6190000
  60.6509408 134.1239408  83.5250000  59.7119408 133.9479408  83.5810000
  60.9809408 133.4709408  82.9080000  62.0539408 132.5049408  81.6720000
  62.7779408 133.0489408  81.3630000  61.3189408 132.7389408  81.1060000
  87.4739408 128.2959408  67.3770000  87.0789408 129.0559408  66.9490000
  87.4529408 127.6089408  66.7110000  64.6389408 128.2059408  60.3610000
  64.5499408 129.1419408  60.5400000  65.5799408 128.0399408  60.4160000
  63.5789408 125.2939408  74.7230000  64.2869408 125.7469408  74.2640000
  62.8469408 125.9109408  74.7040000  74.3679408 128.5949408  80.4910000
  74.4269408 129.5469408  80.5680000  74.3979408 128.4279408  79.5490000
  62.4339408 149.4479408  81.3220000  61.7669408 148.7629408  81.3040000
  62.1439408 150.0829408  80.6670000  79.6399408 137.0629408  81.6660000
  80.2749408 137.2579408  82.3550000  79.4069408 137.9179408  81.3040000
  87.1349408 132.3819408  81.4320000  86.3539408 131.8949408  81.6950000
  87.7049408 132.3559408  82.2000000  61.7099408 124.5589408  77.3620000
  61.2679408 124.1129408  76.6390000  61.0809408 125.2169408  77.6580000
  63.7859408 123.1389408  65.5410000  64.7399408 123.2159408  65.5740000
  63.5029408 123.8839408  65.0110000  82.3099408 130.3559408  81.7640000
  81.7209408 131.1059408  81.6740000  81.7629408 129.6659408  82.1410000
  88.6129408 140.5529408  80.3810000  89.2029408 140.8629408  81.0670000
  88.5069408 141.3039408  79.7970000  78.5159408 145.7009408  60.7170000
  78.6129408 146.6029408  61.0230000  79.1969408 145.5999408  60.0510000
  84.3199408 135.3179408  73.4330000  83.7379408 136.0469408  73.2200000
  84.8819408 135.6559408  74.1310000  82.5469408 135.5769408  64.2880000
  81.8889408 136.0879408  63.8160000  82.4899408 134.7009408  63.9070000
  79.5539408 120.0589408  77.2370000  79.8519408 120.3489408  76.3750000
  78.6799408 120.4369408  77.3290000  84.5779408 146.1839408  79.7680000
  85.3119408 145.7339408  79.3490000  83.8019408 145.8429408  79.3220000
  81.9709408 149.7309408  64.2900000  81.4919408 150.5529408  64.3860000
  82.2929408 149.5359408  65.1700000  79.7779408 143.9979408  73.5600000
  80.2779408 144.1409408  72.7560000  80.3799408 143.5269408  74.1360000
  76.2369408 122.5929408  67.0360000  76.4979408 121.7169408  66.7530000
  77.0569408 123.0199408  67.2820000  77.8549408 123.6489408  68.8230000
  78.0219408 124.5789408  68.9790000  77.6949408 123.2839408  69.6930000
  80.3289408 144.1079408  62.8240000  79.6049408 144.5969408  62.4350000
  80.2499408 144.2699408  63.7640000  81.6989408 120.0119408  79.4060000
  82.3109408 119.7979408  78.7010000  80.9559408 120.4209408  78.9620000
  87.1489408 141.4149408  68.1260000  87.0169408 141.9989408  68.8730000
  86.3659408 140.8649408  68.1090000  81.1139408 122.1109408  64.7390000
  81.1109408 122.6599408  65.5240000  81.5609408 122.6399408  64.0780000
  82.0079408 130.1399408  76.2200000  81.9829408 130.3189408  75.2790000
  82.8879408 129.7949408  76.3750000  76.6089408 138.0909408  73.3550000
  76.7289408 137.5009408  72.6110000  77.4469408 138.5439408  73.4390000
  87.8639408 137.4319408  69.3610000  87.7469408 137.2979408  70.3010000
  88.3079408 138.2779408  69.2930000  61.0329408 145.6039408  73.9710000
  60.2089408 145.2399408  74.2930000  61.2309408 145.0919408  73.1870000
  61.9339408 149.6879408  78.6420000  62.2469408 148.7839408  78.6550000
  61.5109408 149.7829408  77.7880000  61.1559408 138.4609408  80.0400000
  60.2709408 138.7809408  79.8660000  61.0349408 137.5459408  80.2950000
  62.0799408 148.3339408  63.5080000  61.6479408 148.7749408  62.7770000
  62.4669408 149.0439408  64.0210000  77.4589408 139.6149408  66.9330000
  76.5709408 139.2699408  67.0270000  77.7209408 139.3639408  66.0470000
  86.6749408 137.5639408  73.5590000  86.2789408 137.7839408  74.4030000
  86.8119408 136.6169408  73.5990000  79.9319408 143.5469408  65.4520000
  79.4589408 142.7149408  65.4690000  80.8459408 143.3059408  65.6030000
  83.0439408 141.6259408  73.4910000  82.5689408 141.6099408  72.6600000
  83.9519408 141.4399408  73.2520000  81.5259408 147.0239408  63.9340000
  81.8329408 146.7029408  63.0860000  81.8009408 147.9409408  63.9570000
  82.5659408 143.1829408  66.2490000  82.5139408 142.3989408  66.7960000
  83.4839408 143.2299408  65.9820000  62.7359408 143.2419408  81.7040000
  62.8889408 143.6109408  80.8350000  62.5469408 143.9999408  82.2570000
  85.2289408 123.2469408  72.4100000  84.8559408 122.6399408  71.7710000
  86.0849408 123.4789408  72.0500000  63.0529408 146.7679408  75.5720000
  62.4119408 146.2939408  75.0430000  63.1159408 147.6289408  75.1590000
  84.1119408 141.8259408  63.7350000  84.7569408 142.4489408  64.0690000
  84.4369408 141.5849408  62.8680000  85.3229408 136.5199408  63.7300000
  85.4299408 135.8639408  63.0410000  84.4889408 136.2979408  64.1450000
  85.6729408 140.8899408  83.2500000  85.9379408 141.6929408  82.8020000
  85.0279408 140.4909408  82.6670000  88.0719408 135.0429408  74.1250000
  88.3279408 134.1539408  73.8810000  88.7059408 135.6059408  73.6790000
  81.4969408 137.6769408  68.9910000  80.6869408 137.9649408  69.4120000
  81.2069408 137.1699408  68.2330000  81.3089408 141.2979408  70.9070000
  80.3719408 141.3809408  71.0840000  81.3559408 140.9219408  70.0280000
  82.7679408 139.3119408  77.3790000  82.3009408 140.0629408  77.0110000
  83.4259408 139.6989408  77.9570000  79.7129408 141.5399408  67.5910000
  79.1179408 140.8719408  67.2500000  80.5109408 141.0599408  67.8100000
  83.7039408 137.7479408  70.5130000  84.1529408 136.9339408  70.2860000
  82.9529408 137.7799408  69.9200000  87.4709408 145.8359408  66.5070000
  87.7579408 144.9329408  66.6370000  87.3959408 145.9299408  65.5570000
  87.1539408 145.2229408  78.8610000  87.2309408 144.5909408  78.1470000
  87.9429408 145.7599408  78.7930000  88.9979408 135.2499408  77.3840000
  88.6679408 135.0439408  78.2580000  88.5579408 134.6249408  76.8080000
  77.0249408 142.7099408  77.6690000  76.8809408 142.0149408  77.0260000
  76.7759408 143.5139408  77.2140000  85.5159408 122.1409408  62.2740000
  84.6969408 122.6339408  62.2290000  85.2789408 121.3189408  62.7030000
  87.8379408 136.4779408  64.9610000  87.1649408 136.4449408  64.2810000
  88.2269408 137.3489408  64.8720000  78.1619408 131.4479408  78.1310000
  78.1129408 131.6889408  79.0560000  79.0279408 131.7449408  77.8520000
  71.7949408 124.1809408  75.4660000  71.0579408 124.3869408  76.0420000
  72.4969408 124.7619408  75.7580000  84.6279408 149.7129408  63.2650000
  83.6809408 149.5999408  63.3410000  84.9819408 149.3039408  64.0550000
  84.1549408 148.4689408  68.6710000  84.9869408 147.9959408  68.6860000
  83.5239408 147.8559408  69.0480000  87.6299408 148.3429408  67.5860000
  87.5669408 147.3909408  67.5050000  87.5549408 148.5079408  68.5260000
  86.7179408 143.2369408  77.1170000  87.0469408 143.5299408  76.2670000
  86.4409408 142.3329408  76.9690000  88.6429408 143.4169408  62.1320000
  89.5469408 143.7219408  62.2000000  88.2299408 144.0239408  61.5180000
  78.1019408 149.3339408  73.8490000  78.8249408 149.9569408  73.9170000
  78.5209408 148.5029408  73.6270000  60.8829408 135.8929408  80.9960000
  61.0199408 135.6469408  81.9110000  60.0429408 135.4959408  80.7640000
  89.7119408 147.0349408  78.1520000  89.5509408 147.4989408  77.3300000
  89.2639408 147.5589408  78.8150000  67.1339408 143.6299408  77.5170000
  66.9599408 144.4419408  77.0430000  67.4829408 143.0339408  76.8540000
  64.8129408 140.6049408  80.3340000  64.8989408 141.5329408  80.5520000
  64.8869408 140.1529408  81.1740000  85.3029408 146.0099408  71.7730000
  85.0519408 145.5969408  70.9470000  84.6769408 146.7259408  71.8830000
  75.4609408 143.4619408  63.0360000  75.9439408 143.2799408  62.2300000
  75.3659408 142.6069408  63.4560000  73.5109408 147.9189408  75.3630000
  74.4469408 147.8499408  75.5500000  73.2639408 147.0499408  75.0470000
  85.1669408 145.1589408  61.8110000  84.2559408 144.8679408  61.8270000
  85.3879408 145.2049408  60.8810000  81.1539408 147.1659408  66.5480000
  81.4189408 146.9389408  65.6570000  81.5359408 148.0299408  66.7000000
  76.0469408 124.5639408  75.7710000  76.0809408 124.5099408  76.7260000
  75.4529408 125.2939408  75.5940000  62.8799408 147.4629408  72.2670000
  62.0239408 147.0379408  72.2150000  63.2679408 147.3299408  71.4030000
  88.6919408 139.2009408  63.8620000  89.5599408 138.8229408  63.7170000
  88.1619408 138.8679408  63.1380000  87.3199408 138.8899408  61.5420000
  87.8129408 139.1749408  60.7720000  87.3469408 137.9339408  61.5040000
  60.1709408 145.8719408  63.6420000  60.6029408 145.3299408  62.9810000
  60.8439408 146.4929408  63.9200000  81.9069408 140.2649408  68.2860000
  81.7919408 139.3209408  68.3890000  82.4119408 140.3589408  67.4790000
  80.8209408 145.7819408  71.5460000  80.6039408 145.9449408  70.6280000
  80.7959408 146.6459408  71.9560000  87.3569408 121.1799408  66.2670000
  87.6309408 121.6629408  65.4870000  88.0139408 120.4909408  66.3660000
  78.4929408 140.8929408  71.3400000  78.2899408 140.2629408  70.6490000
  77.8709408 141.6069408  71.2050000  87.5929408 148.9229408  70.4380000
  87.4519408 149.3709408  71.2720000  88.5019408 148.6269408  70.4740000
  69.8979408 148.3239408  77.5680000  70.5479408 147.6229408  77.5210000
  69.0609408 147.8869408  77.4100000  60.6229408 145.0849408  79.8260000
  61.5509408 144.8679408  79.9130000  60.5909408 145.7159408  79.1080000
  89.5049408 129.6089408  63.9390000  89.2369408 129.4409408  63.0360000
  90.3389408 129.1489408  64.0320000  84.9399408 148.5519408  72.8940000
  85.6679408 148.0659408  73.2810000  85.3499408 149.3119408  72.4820000
  86.2609408 140.5759408  76.5330000  85.9599408 139.7359408  76.1870000
  87.1519408 140.4039408  76.8380000  60.9209408 149.9589408  69.9480000
  61.4189408 149.3979408  69.3520000  60.0779408 150.0829408  69.5120000
  60.1289408 120.2789408  66.1440000  60.1339408 120.2069408  65.1890000
  60.6739408 119.5509408  66.4420000  80.1059408 146.3139408  68.9570000
  80.3829408 146.3689408  68.0430000  79.8789408 147.2129408  69.1940000
  81.2849408 141.4409408  63.2030000  82.1909408 141.6019408  63.4660000
  80.9289408 142.3109408  63.0260000  84.8339408 138.1349408  75.5300000
  85.1179408 137.2749408  75.8380000  84.2629408 138.4619408  76.2250000
  85.9399408 143.0769408  70.1740000  85.0409408 142.8989408  70.4490000
  85.8779408 143.8789408  69.6550000  60.5509408 143.0329408  68.3860000
  60.1859408 143.4379408  67.6000000  59.8569408 143.1109408  69.0410000
  79.0939408 145.2559408  77.6310000  78.8449408 145.5209408  78.5160000
  78.5189408 144.5169408  77.4310000  84.6889408 146.4959408  83.9890000
  85.4609408 146.4079408  83.4300000  84.0209408 145.9579408  83.5630000
  79.7889408 147.3129408  83.2930000  80.5389408 147.1429408  82.7230000
  79.6029408 148.2449408  83.1720000  86.0789408 148.6559408  65.3270000
  86.5179408 148.9459408  66.1270000  86.5309408 147.8469408  65.0860000
  81.9989408 147.5469408  61.0180000  82.9239408 147.6119408  60.7810000
  81.7279408 146.6889408  60.6910000  77.6129408 140.7449408  63.2240000
  77.4149408 139.8939408  62.8320000  77.7729408 141.3209408  62.4770000
  88.7029408 143.2359408  80.3090000  89.5569408 143.6369408  80.1500000
  88.0819408 143.8059408  79.8540000  79.1839408 142.3919408  79.3730000
  78.8759408 142.0519408  80.2130000  78.3959408 142.4469408  78.8330000
  82.4529408 142.8319408  84.3870000  83.2899408 143.2969408  84.4070000
  81.9209408 143.3219408  83.7600000  89.3329408 140.1069408  69.6110000
  90.1389408 140.5079408  69.2850000  88.7129408 140.1949408  68.8870000
  89.7389408 121.2499408  82.7270000  89.9719408 120.5979408  82.0660000
  88.7969408 121.1349408  82.8560000  86.4519408 138.2429408  83.9800000
  86.5979408 139.0739408  83.5290000  85.5169408 138.0689408  83.8690000
  62.8429408 145.7119408  83.1490000  63.7689408 145.4969408  83.0340000
  62.8479408 146.5679408  83.5780000  88.0669408 135.0089408  80.1910000
  88.0739408 135.9439408  79.9830000  87.1889408 134.8459408  80.5340000
  89.9059408 148.0329408  81.8660000  89.3759408 148.3819408  82.5830000
  90.0419408 147.1129408  82.0930000  80.8229408 140.4389408  84.5460000
  81.4419408 141.1659408  84.6110000  80.8099408 140.2179408  83.6140000
  63.7959408 122.6399408  61.5360000  63.1589408 123.0979408  60.9870000
  63.2689408 122.0539408  62.0780000  84.2699408 149.2149408  84.6630000
  84.2869408 148.9489408  85.5820000  84.4699408 148.4149408  84.1780000
  80.7379408 123.9019408  80.2470000  80.8629408 123.9519408  79.3000000
  81.6089408 124.0529408  80.6130000  89.0199408 148.8129408  84.3330000
  89.8619408 149.1639408  84.6250000  88.8459408 148.0819408  84.9260000
  86.1579408 146.4039408  63.9090000  85.6669408 147.2129408  64.0520000
  85.8099408 146.0549408  63.0890000  77.0399408 148.4119408  84.8180000
  77.5809408 148.5059408  85.6020000  77.1749408 147.5059408  84.5410000
  83.6199408 144.9529408  82.0760000  82.8519408 144.5989408  81.6270000
  84.1499408 145.3379408  81.3780000  81.2529408 143.5169408  80.7880000
  80.5179408 143.0819408  80.3570000  80.8559408 143.9929408  81.5170000
  63.1729408 149.6979408  83.8650000  62.8949408 149.4999408  82.9710000
  63.6089408 150.5479408  83.7990000  84.4219408 129.4159408  80.1160000
  85.2529408 129.6309408  80.5400000  83.7539408 129.7569408  80.7110000
  62.7039408 141.1609408  60.5350000  61.8629408 141.6189408  60.5440000
  62.8899408 141.0209408  59.6060000  78.5739408 146.5729408  79.9790000
  79.3969408 147.0059408  80.2050000  77.9349408 146.9379408  80.5900000
  83.9579408 121.6669408  83.3620000  83.0839408 121.9459408  83.6370000
  84.0009408 120.7409408  83.6010000  83.5929408 140.4459408  66.1030000
  84.4549408 140.0469408  66.2220000  83.6239408 140.8299408  65.2270000
  81.0189408 141.9559408  77.3460000  80.6409408 142.0609408  78.2200000
  81.4569408 142.7889408  77.1720000  89.3579408 126.4659408  81.7420000
  88.9689408 126.1709408  80.9190000  89.0259408 125.8529408  82.3980000
  65.0389408 140.2599408  83.3180000  65.4329408 140.8059408  83.9980000
  64.2329408 139.9279408  83.7140000  82.3159408 120.6029408  60.0200000
  82.8489408 120.3259408  60.7650000  82.9519408 120.8169408  59.3370000
  62.0639408 122.4419408  79.6400000  62.0359408 123.1009408  78.9460000
  61.3919408 121.8059408  79.3950000  76.0279408 149.2599408  78.5900000
  75.0909408 149.1729408  78.4130000  76.1359408 148.9249408  79.4800000
  80.3859408 144.2079408  83.2040000  80.0829408 145.1069408  83.3300000
  79.8389408 143.6859408  83.7910000  60.8689408 126.2169408  60.9050000
  61.1979408 126.6709408  60.1290000  61.6129408 126.1979408  61.5060000
  70.0009408 146.2329408  81.9690000  70.8279408 145.7619408  82.0740000
  70.2609408 147.1449408  81.8330000  73.1139408 149.2469408  78.1040000
  73.4209408 148.6579408  77.4150000  72.3449408 149.6749408  77.7280000
  94.1209408  43.6749408  13.7610000  94.0209408  44.4239408  14.3480000
  94.6659408  43.0579408  14.2490000 109.4019408  47.0039408   3.4620000
 109.3069408  46.1259408   3.8320000 108.6369408  47.1089408   2.8970000
 111.2879408  35.2629408  29.9310000 110.5409408  34.9539408  30.4440000
 110.9199408  35.9259408  29.3470000  96.9639408  57.2739408   4.1330000
  96.2589408  56.7169408   4.4630000  96.9889408  58.0129408   4.7410000
 111.1249408  31.1489408  21.7350000 110.9649408  30.2999408  21.3230000
 111.6349408  31.6379408  21.0890000  96.7109408  48.7099408  21.4700000
  96.3839408  49.3649408  22.0880000  97.6529408  48.8729408  21.4250000
 101.8849408  41.9679408  12.0810000 101.2899408  41.2449408  12.2800000
 102.7569408  41.5759408  12.1090000  95.8789408  36.9689408   8.7010000
  95.4139408  36.1719408   8.4480000  95.9029408  37.4959408   7.9020000
 105.1049408  47.8279408  15.6050000 104.2939408  47.6459408  15.1300000
 105.7899408  47.7719408  14.9380000  90.6359408  44.0729408   8.5360000
  89.8129408  44.3929408   8.1640000  90.9089408  43.3719408   7.9450000
 108.8559408  48.6129408   9.2840000 108.4689408  48.1719408  10.0410000
 108.1489408  49.1559408   8.9360000  99.0639408  38.6819408  17.8260000
  98.4579408  38.2489408  18.4280000  99.3939408  37.9759408  17.2700000
 101.2259408  41.3479408   5.7040000 100.6419408  41.7979408   6.3140000
 101.6789408  40.6969408   6.2400000 107.4669408  45.2269408  17.9080000
 107.9479408  45.1439408  18.7320000 108.1319408  45.1079408  17.2300000
 112.0799408  39.5039408   6.3360000 111.9909408  39.7379408   5.4120000
 112.7389408  40.1109408   6.6740000  95.6149408  43.6859408   8.9500000
  95.7649408  43.7169408   9.8950000  94.7539408  44.0859408   8.8300000
 119.3079408  48.9599408  15.2020000 119.6479408  49.5329408  15.8900000
 119.8979408  49.0979408  14.4610000  92.5329408  37.1629408  28.8470000
  93.2739408  37.5749408  29.2930000  92.8629408  36.9599408  27.9720000
 102.9309408  55.5519408  14.1980000 103.8639408  55.3599408  14.1090000
 102.5239408  55.1209408  13.4470000 118.0369408  35.5629408   5.5490000
 117.0969408  35.6829408   5.4130000 118.2159408  34.6789408   5.2300000
 108.3629408  51.3589408   0.6810000 107.7089408  52.0489408   0.5670000
 108.2789408  50.8169408  -0.1030000 100.6849408  45.9839408   6.6650000
 101.1339408  46.8249408   6.7490000  99.8769408  46.0929408   7.1670000
 108.4319408  34.8569408  25.0460000 108.1149408  34.5139408  25.8810000
 108.3719408  34.1159408  24.4430000 118.7999408  39.9389408  15.7730000
 117.8609408  39.9999408  15.5990000 118.8569408  39.5959408  16.6650000
  92.3889408  50.7699408   3.8460000  93.1819408  51.3059408   3.8470000
  92.6729408  49.9199408   4.1820000 107.9779408  44.4559408  10.6650000
 107.2519408  44.3639408  10.0480000 107.7039408  43.9559408  11.4340000
  99.6549408  54.0029408  30.1860000  99.0479408  54.5939408  29.7410000
 100.5229408  54.3469408  29.9750000 103.5299408  44.6779408   0.5350000
 102.9009408  43.9769408   0.7060000 103.0779408  45.2629408  -0.0730000
 106.9329408  52.0279408  13.3670000 107.2779408  52.9039408  13.1980000
 107.6629408  51.4399408  13.1730000  94.4319408  58.7859408  26.2340000
  94.8979408  58.1089408  25.7430000  93.7839408  59.1269408  25.6170000
 101.7599408  53.1179408   8.5430000 101.6899408  53.8819408   7.9720000
 102.0759408  52.4179408   7.9710000 104.5309408  56.0489408   1.8910000
 105.1549408  56.0429408   1.1650000 104.9719408  55.5639408   2.5890000
  91.5889408  37.8679408   5.1380000  91.9129408  37.0799408   4.7030000
  92.3749408  38.2939408   5.4810000  94.3779408  31.6949408  16.6380000
  93.4469408  31.8319408  16.4640000  94.7679408  31.5709408  15.7730000
 106.9779408  44.3809408  28.3850000 107.8199408  43.9829408  28.6060000
 107.1409408  44.8459408  27.5640000 101.0189408  32.1809408  18.1460000
 100.7569408  33.1019408  18.1390000 101.6919408  32.1279408  18.8240000
 105.1549408  30.6799408   8.8720000 104.7649408  31.4279408   8.4200000
 105.0899408  29.9599408   8.2450000 105.4189408  44.0349408  13.0950000
 104.8099408  43.9809408  13.8320000 104.8679408  44.2559408  12.3440000
  96.8749408  56.9259408   9.7580000  97.0919408  57.8089408  10.0560000
  97.0169408  56.9499408   8.8120000 102.2769408  39.0759408  26.9600000
 101.8759408  39.8269408  26.5240000 102.9859408  39.4519408  27.4820000
 118.5349408  45.5709408   7.6430000 118.4489408  46.1489408   6.8850000
 118.1879408  46.0809408   8.3750000  98.3539408  36.3839408   3.5020000
  99.0179408  36.9059408   3.0520000  97.9879408  36.9769408   4.1590000
 114.3849408  39.4109408  17.3650000 114.7209408  38.5179408  17.2950000
 114.2909408  39.5589408  18.3060000  97.7939408  43.7699408   7.0920000
  97.1589408  43.5089408   7.7590000  98.3649408  43.0079408   6.9930000
  99.0859408  32.8069408  12.3010000  99.2659408  33.2629408  11.4790000
  99.7729408  33.1059408  12.8980000 105.8509408  43.9929408   9.0110000
 105.1649408  44.5659408   8.6690000 105.4019408  43.1709408   9.2080000
  97.6489408  47.3009408  12.5020000  97.1329408  47.8939408  13.0490000
  97.6139408  46.4609408  12.9600000 112.4549408  33.6049408   2.6640000
 111.6819408  33.5749408   2.1000000 112.7979408  34.4919408   2.5530000
 111.2289408  50.5009408  14.9470000 110.8759408  51.0379408  15.6570000
 111.9479408  51.0209408  14.5870000  97.2079408  38.2029408  29.8520000
  97.3599408  38.7419408  30.6280000  98.0649408  38.1409408  29.4310000
 100.4099408  55.8839408  26.7950000 100.4019408  56.2829408  25.9250000
  99.6159408  56.2129408  27.2170000 101.1919408  56.2969408   1.5580000
 101.2509408  57.2469408   1.6600000 101.6389408  55.9449408   2.3270000
  94.6869408  33.6109408  12.3470000  93.8339408  33.9499408  12.0730000
  95.2309408  34.3909408  12.4540000 103.1469408  42.3189408  27.0580000
 103.5739408  42.0469408  26.2450000 103.8619408  42.4039408  27.6880000
 101.3659408  50.8169408  12.9800000 101.3449408  51.5859408  12.4090000
 102.2869408  50.5579408  12.9990000 105.5709408  34.5019408  23.2080000
 106.1229408  35.1429408  22.7600000 105.2669408  33.9189408  22.5130000
 104.5329408  49.5259408   7.8070000 104.0209408  48.9609408   8.3850000
 103.9069408  50.1799408   7.4950000  94.9169408  44.0799408   6.0540000
  95.2429408  43.2809408   6.4690000  94.3959408  44.5079408   6.7330000
 101.9419408  34.9309408  18.4310000 102.8109408  35.3169408  18.3240000
 101.7659408  34.9919408  19.3700000  92.9999408  53.7209408   4.9930000
  92.5599408  53.1309408   5.6050000  93.7909408  53.2499408   4.7310000
  99.3909408  35.9979408  13.5600000  98.4679408  35.8209408  13.7410000
  99.5449408  35.6099408  12.6990000  96.4589408  49.0469408  14.2110000
  95.7969408  48.9559408  14.8960000  97.0899408  49.6709408  14.5690000
 102.7269408  34.7419408  13.0350000 103.5559408  34.2759408  12.9230000
 102.3699408  34.4009408  13.8560000 100.9189408  45.5149408  11.9010000
 100.0709408  45.1079408  11.7250000 100.7289408  46.4519408  11.9560000
 101.2779408  38.6519408   9.3500000 101.3409408  37.9429408   9.9910000
 100.6729408  39.2789408   9.7440000  97.3769408  58.8119408   1.6800000
  96.6809408  58.2869408   1.2850000  97.2869408  58.6599408   2.6210000
 105.6899408  48.6069408   4.5490000 105.8669408  48.6029408   3.6090000
 106.2479408  47.9129408   4.9010000  96.0069408  30.8799408   4.4630000
  96.8559408  30.4709408   4.2940000  96.1609408  31.8149408   4.3310000
  99.4119408  38.7209408   6.5640000  99.9009408  38.4549408   7.3430000
 100.0189408  39.2819408   6.0810000 100.9679408  48.3959408  15.9660000
 101.6029408  47.8829408  15.4660000 100.1389408  47.9329408  15.8490000
  99.0729408  40.0809408   9.9790000  99.3089408  40.3209408  10.8750000
  98.1399408  39.8699408  10.0250000  98.6629408  53.0849408   5.7270000
  99.1639408  52.7029408   6.4480000  99.3049408  53.2099408   5.0280000
 102.1909408  33.0269408   6.6490000 102.5829408  33.5069408   7.3790000
 102.8259408  32.3399408   6.4440000  92.7639408  40.3209408  15.9390000
  92.1979408  40.7929408  15.3280000  92.1579408  39.8679408  16.5260000
  93.7929408  35.9289408  18.5460000  94.5359408  35.3939408  18.2680000
  93.0419408  35.5539408  18.0850000  97.2649408  35.4869408  10.7700000
  96.6499408  36.0649408  10.3180000  97.6409408  34.9459408  10.0760000
  94.4899408  34.3149408   8.6110000  93.8189408  33.6769408   8.8510000
  94.7519408  34.0669408   7.7250000 108.2059408  41.1969408  11.0920000
 108.7899408  41.1579408  10.3350000 107.3289408  41.0939408  10.7250000
 102.6159408  32.7419408   2.6460000 102.2479408  33.1119408   1.8440000
 103.2749408  33.3789408   2.9240000 113.6789408  49.2509408  25.6230000
 112.9449408  48.9459408  26.1550000 114.0749408  49.9529408  26.1400000
  93.9959408  40.0319408  19.2360000  94.7059408  39.4889408  18.8920000
  94.1359408  40.8909408  18.8370000 103.6049408  39.6929408   3.1680000
 104.0819408  38.9459408   3.5280000 104.2209408  40.4239408   3.2310000
 100.6809408  41.2849408   0.4750000 100.9629408  41.9649408  -0.1370000
 100.5939408  41.7389408   1.3140000  96.1979408  58.7859408   7.3920000
  95.6229408  59.3219408   7.9370000  96.9389408  59.3569408   7.1890000
 105.6389408  36.6119408   8.9870000 105.6199408  36.6119408   9.9440000
 106.5409408  36.8459408   8.7660000 106.1629408  50.3279408   9.8410000
 105.8969408  50.1039408   8.9500000 105.7949408  49.6309408  10.3840000
 108.8369408  49.6889408  13.6890000 109.6529408  49.8079408  14.1740000
 109.0429408  49.9709408  12.7980000  97.3569408  44.9479408  14.1060000
  96.7409408  44.6609408  14.7800000  97.7119408  44.1349408  13.7450000
 112.1589408  41.9809408   8.6940000 112.2029408  42.9319408   8.6020000
 112.8179408  41.6489408   8.0840000  91.5759408  31.8369408  12.3790000
  91.6699408  31.3979408  11.5340000  91.7809408  32.7539408  12.1980000
  99.7979408  43.5629408  20.7020000  99.9119408  42.6129408  20.6900000
 100.2249408  43.8659408  19.9000000  95.8779408  41.1339408  28.3530000
  96.6849408  41.2089408  28.8610000  95.1959408  40.9759408  29.0060000
 102.6309408  43.1459408  14.3340000 102.2629408  43.3379408  13.4710000
 102.9819408  42.2589408  14.2530000 100.1429408  38.5439408   2.9460000
 100.7999408  38.6049408   2.2530000 100.5939408  38.8529408   3.7320000
  94.7069408  45.4199408  23.1280000  94.5639408  45.8999408  22.3120000
  94.9709408  46.0909408  23.7570000  92.9149408  46.4549408  14.3630000
  93.5279408  47.1049408  14.7050000  92.2449408  46.3749408  15.0420000
  99.9729408  31.6209408   9.1660000 100.8859408  31.7839408   8.9290000
 100.0159408  31.2549408  10.0490000 102.5159408  39.3919408   7.0440000
 102.9239408  38.9559408   6.2950000 102.6179408  38.7729408   7.7670000
 110.6819408  44.5549408  10.8580000 110.4699408  44.9719408  11.6930000
 109.8309408  44.3559408  10.4670000 108.2509408  40.8129408  27.5970000
 107.9399408  40.8729408  26.6940000 109.1989408  40.9269408  27.5330000
  95.0659408  42.1979408  18.1450000  95.8319408  41.7159408  17.8330000
  94.6889408  42.5859408  17.3550000  94.4699408  36.9909408  21.0950000
  94.3759408  36.7169408  20.1820000  94.4599408  37.9469408  21.0610000
 106.7989408  38.8369408  21.9130000 106.1259408  38.2629408  21.5470000
 107.3839408  38.2479408  22.3890000 107.3339408  31.3149408  17.3720000
 107.1459408  32.1649408  17.7700000 106.5919408  30.7639408  17.6200000
  94.3569408  54.6489408  13.1330000  95.1819408  55.0809408  12.9100000
  93.8739408  55.2999408  13.6410000  96.0859408  44.8579408  11.4430000
  95.4669408  45.3769408  10.9300000  95.9959408  45.1919408  12.3360000
 103.4409408  46.1729408   8.5040000 103.3789408  45.9409408   7.5780000
 102.7799408  46.8539408   8.6260000  98.5019408  34.1379408   8.6120000
  98.8629408  34.4539408   7.7840000  98.9809408  33.3279408   8.7890000
  99.2219408  59.9579408  19.5540000  99.1209408  59.3189408  18.8490000
  99.7729408  60.6449408  19.1780000  95.8979408  56.1729408  15.7840000
  94.9769408  56.4009408  15.6590000  96.2559408  56.1269408  14.8980000
  94.1719408  38.0399408   6.5580000  93.5999408  38.3309408   7.2680000
  94.3229408  38.8259408   6.0330000 110.9309408  38.1219408  17.8530000
 110.4899408  38.4399408  18.6410000 111.2959408  38.9089408  17.4480000
  93.5469408  59.1949408  14.3880000  93.4529408  58.7309408  13.5560000
  94.0779408  59.9629408  14.1760000  97.6459408  45.5889408   0.5610000
  98.1379408  44.9059408   1.0160000  98.1499408  46.3889408   0.7110000
  99.7719408  32.8839408   5.6410000 100.6209408  32.7349408   6.0590000
  99.7999408  32.3549408   4.8440000  99.0259408  46.3989408  15.6100000
  98.7289408  46.0099408  16.4320000  98.4029408  46.0809408  14.9560000
 114.9449408  40.7089408  22.4340000 114.4059408  40.1399408  22.9830000
 114.3479408  41.3989408  22.1430000 102.9919408  36.0789408  20.9050000
 103.2669408  36.9929408  20.8340000 103.4549408  35.7489408  21.6750000
 103.9919408  40.0189408  29.0960000 104.7189408  39.4589408  29.3680000
 104.3539408  40.5539408  28.3890000 105.0069408  37.1169408  28.0480000
 105.2319408  37.0419408  28.9750000 104.1499408  36.6969408  27.9740000
 109.7759408  47.0209408   6.7930000 109.6259408  47.7959408   6.2530000
 109.1299408  47.0889408   7.4960000 114.9269408  45.3199408   9.5870000
 115.3159408  44.5869408  10.0650000 115.3279408  45.2809408   8.7190000
  95.7419408  41.5499408  12.2860000  95.5099408  41.7689408  13.1890000
  96.5849408  41.9799408  12.1450000 119.0709408  32.3679408  13.5800000
 119.1899408  32.7229408  14.4610000 119.9599408  32.2269408  13.2550000
 105.3469408  37.8619408  13.5700000 105.5059408  37.1419408  12.9600000
 106.2199408  38.1279408  13.8590000 103.9419408  57.7469408  11.2050000
 103.6119408  57.6369408  12.0970000 103.2129408  58.1429408  10.7270000
  91.1999408  47.8119408  29.4490000  91.9049408  48.0979408  30.0290000
  91.6469408  47.3699408  28.7280000  92.4759408  43.4329408  11.5170000
  92.9669408  43.3179408  12.3310000  92.3929408  44.3819408  11.4200000
  94.0809408  40.9719408  10.1910000  93.3579408  41.5829408  10.3280000
  94.6869408  41.1519408  10.9110000  92.4699408  32.2689408   9.4860000
  91.9209408  33.0069408   9.2190000  91.8819408  31.5139408   9.4670000
  93.0199408  46.0899408  11.5960000  92.9749408  46.1599408  12.5500000
  93.1089408  46.9939408  11.2930000 102.5739408  44.1909408  16.7410000
 102.6879408  43.7449408  15.9010000 103.3929408  44.6689408  16.8720000
 105.7109408  42.0629408  28.0250000 106.5479408  41.6029408  28.0980000
 105.9129408  42.9669408  28.2670000  99.4949408  45.9309408   3.8740000
  99.7659408  45.7989408   4.7830000  99.9059408  46.7569408   3.6190000
  98.0449408  48.2839408  17.2700000  97.8129408  47.5769408  17.8720000
  98.2419408  47.8409408  16.4450000  98.0199408  31.0509408  14.0630000
  98.1869408  31.8039408  13.4960000  98.5849408  31.1939408  14.8240000
 102.3299408  53.4389408   4.0320000 101.5709408  52.9229408   3.7610000
 103.0749408  53.0059408   3.6160000  93.8559408  58.2669408   6.1100000
  93.5329408  59.1219408   5.8250000  94.7399408  58.4389408   6.4320000
  92.1229408  52.1309408  17.8600000  92.8419408  51.8089408  17.3180000
  92.3069408  53.0629408  17.9750000 108.9909408  38.3469408   5.9690000
 109.9089408  38.3779408   6.2400000 108.8449408  37.4349408   5.7200000
  95.8029408  46.0779408   4.3120000  96.5949408  45.6419408   3.9980000
  95.6179408  45.6609408   5.1540000 105.6349408  41.6509408   3.7230000
 106.4549408  41.1739408   3.8460000 105.4639408  42.0589408   4.5730000
 103.6209408  45.0579408  11.2560000 102.8359408  45.3699408  11.7060000
 103.5009408  45.3309408  10.3470000  96.7349408  40.4089408  16.9120000
  97.6709408  40.2119408  16.8740000  96.3309408  39.5979408  17.2210000
  99.1019408  49.7299408  22.1000000  99.8669408  49.3959408  21.6300000
  99.3469408  50.6199408  22.3550000  98.8879408  50.4159408   1.5990000
  98.2829408  49.7779408   1.9770000  98.7719408  51.2019408   2.1330000
 103.4439408  30.5639408   5.1250000 104.2609408  30.5429408   5.6220000
 103.7179408  30.5099408   4.2090000  98.1309408  47.3219408   9.6840000
  98.1119408  48.2399408   9.4110000  97.9969408  47.3509408  10.6310000
 101.8609408  38.8709408   0.8180000 101.4729408  39.7019408   0.5460000
 102.8049408  39.0259408   0.7920000 104.0549408  50.7059408  19.8650000
 103.1819408  50.5199408  20.2090000 104.1139408  50.1809408  19.0660000
  98.7819408  44.8269408  10.5120000  97.8989408  44.6719408  10.8490000
  98.7299408  45.6859408  10.0920000 115.7759408  45.5769408  15.5950000
 116.5949408  45.4519408  15.1160000 115.8309408  44.9639408  16.3280000
 104.7319408  35.0299408   6.7360000 105.2879408  34.2539408   6.6670000
 105.2679408  35.6689408   7.2060000 104.7409408  48.3739408  28.8420000
 105.0239408  49.2489408  28.5730000 105.2609408  48.1829408  29.6220000
 104.8019408  45.4929408  16.8610000 104.9129408  46.3009408  16.3600000
 105.6729408  45.3059408  17.2110000  97.7279408  43.2519408  26.7680000
  97.4999408  42.7349408  27.5410000  98.4259408  43.8349408  27.0650000
 108.8059408  48.6449408  29.5420000 109.1739408  47.7629408  29.4910000
 109.4979408  49.2139408  29.2050000 117.4529408  42.4809408  12.6510000
 116.9679408  41.6609408  12.7380000 118.3159408  42.2169408  12.3320000
 109.8039408  40.9529408   8.8190000 110.7069408  41.2619408   8.7410000
 109.2889408  41.5889408   8.3220000 103.6759408  42.0399408   8.3110000
 102.9579408  42.4469408   8.7970000 103.3909408  41.1369408   8.1740000
  94.4319408  29.9699408   9.1520000  94.9539408  30.3289408   9.8690000
  93.7079408  30.5879408   9.0490000  93.1979408  45.2869408   7.9950000
  92.5999408  45.4139408   7.2590000  92.7259408  44.7069408   8.5910000
 103.4919408  40.2479408  15.4210000 104.1179408  40.9619408  15.5410000
 104.0109408  39.5349408  15.0460000 118.8019408  36.7519408  15.1170000
 118.5949408  36.3399408  14.2790000 117.9779408  37.1509408  15.3980000
  96.3509408  42.5299408  20.8020000  95.7639408  42.6359408  20.0530000
  96.8079408  43.3679408  20.8690000  92.1939408  32.4329408  15.0200000
  91.9859408  32.0149408  14.1840000  92.7589408  33.1699408  14.7850000
 110.3539408  31.1919408  14.3940000 111.2449408  31.0649408  14.0680000
 110.3279408  32.1089408  14.6690000 102.9529408  48.1909408   4.7110000
 102.8259408  48.4779408   5.6150000 103.8859408  48.3269408   4.5450000
 101.2079408  43.2309408   9.6310000 101.4929408  43.1859408  10.5430000
 100.4689408  43.8389408   9.6400000  95.2889408  46.5969408   1.2440000
  96.1979408  46.4009408   1.4730000  95.0949408  46.0109408   0.5130000
  95.9609408  31.2959408  10.8390000  96.7089408  31.8909408  10.8830000
  95.2019408  31.8499408  11.0230000 104.0369408  39.3019408  10.0320000
 103.0859408  39.2279408   9.9500000 104.3769408  38.5189408   9.5980000
 103.8409408  45.9929408  19.9150000 103.3829408  45.6059408  19.1690000
 104.1529408  46.8389408  19.5910000 107.9259408  43.8949408  14.1400000
 106.9729408  43.9149408  14.2200000 108.2449408  44.1439408  15.0080000
 107.9639408  34.7779408   0.3340000 107.0519408  35.0459408   0.4500000
 108.1979408  34.3589408   1.1630000  96.0819408  41.7559408   3.1260000
  95.2619408  42.2489408   3.0890000  96.7199408  42.3779408   3.4750000
 110.7849408  41.9599408  17.6010000 111.3309408  41.2469408  17.2700000
 110.9109408  42.6709408  16.9720000 106.0959408  40.7469408   9.5820000
 105.3069408  40.3579408   9.9590000 106.3329408  40.1619408   8.8630000
 101.8799408  41.9409408   3.1400000 101.5959408  41.9629408   4.0530000
 102.2839408  41.0799408   3.0340000 100.6029408  48.1769408  12.3180000
  99.6709408  48.0139408  12.4610000 100.6839408  49.1309408  12.3230000
 106.8019408  50.5669408  15.9690000 107.5409408  49.9729408  15.8380000
 106.7199408  51.0359408  15.1380000  96.3819408  33.8779408   6.2780000
  96.8239408  34.1609408   7.0780000  96.7769408  34.4079408   5.5850000
 107.8219408  40.6709408  24.7140000 107.0509408  40.2079408  24.3860000
 108.5589408  40.2549408  24.2680000 110.9929408  46.8169408   1.4860000
 111.3499408  47.6909408   1.3270000 110.4049408  46.9299408   2.2320000
 117.1529408  43.0869408  16.5300000 117.5009408  42.5009408  17.2020000
 116.4709408  42.5749408  16.0950000 118.4819408  40.9349408   9.6410000
 118.8959408  41.1749408  10.4700000 118.9019408  41.4979408   8.9910000
 104.8989408  56.5689408   8.8670000 104.8359408  56.8249408   9.7880000
 104.8469408  55.6129408   8.8800000  96.4319408  39.2409408   9.6680000
  95.6539408  39.7959408   9.6110000  96.1929408  38.4429408   9.1960000
 107.9739408  40.1959408   4.3400000 108.5639408  40.9399408   4.4650000
 108.2259408  39.5729408   5.0210000 104.5639408  41.3319408  12.5050000
 105.3129408  41.9219408  12.4160000 104.8419408  40.5249408  12.0710000
  95.8949408  49.3489408  10.4970000  95.2319408  49.5939408  11.1420000
  95.4229408  48.8129408   9.8600000 100.5329408  34.8369408  11.0850000
 100.4469408  35.5079408  10.4070000 101.3799408  35.0149408  11.4930000
  98.3729408  53.4639408  13.1860000  99.1639408  53.9339408  12.9220000
  97.6539408  53.9979408  12.8490000  98.0019408  43.8009408   4.2870000
  98.6839408  44.4149408   4.0160000  97.9259408  43.9279408   5.2330000
  98.5919408  50.0079408  11.6570000  97.6919408  49.6829408  11.6220000
  98.5009408  50.9549408  11.7650000  98.5059408  59.5499408   4.7200000
  99.2599408  59.8159408   4.1930000  98.6619408  59.9459408   5.5770000
  94.0379408  57.2559408   9.9530000  94.9729408  57.0479408   9.9550000
  93.9999408  58.1869408   9.7350000 107.8569408  35.7969408   6.3200000
 108.7739408  35.6119408   6.1180000 107.3679408  35.4069408   5.5960000
 114.8209408  37.4299408   8.6100000 114.9309408  36.7309408   7.9650000
 115.4989408  38.0679408   8.3900000  99.6499408  41.8419408   7.8760000
 100.4039408  42.2779408   8.2730000  99.2779408  41.3139408   8.5820000
 107.8409408  41.3329408  21.0730000 107.5779408  40.4969408  21.4570000
 107.0239408  41.8229408  20.9800000 106.4069408  33.6289408  19.0480000
 107.1099408  34.2789408  19.0450000 106.1969408  33.5069408  19.9740000
 101.6449408  38.1269408  23.6070000 101.9199408  37.4939408  24.2710000
 101.9309408  38.9729408  23.9510000 108.3389408  38.6359408  17.0160000
 108.1949408  39.4509408  17.4970000 109.2549408  38.4159408  17.1850000
  97.8239408  39.7049408   1.9020000  98.6989408  39.3949408   2.1340000
  97.3699408  39.7939408   2.7400000  97.4669408  39.5539408  26.4890000
  97.0789408  40.1509408  27.1290000  97.8689408  40.1279408  25.8380000
 103.4879408  38.3599408  17.7820000 102.5719408  38.4729408  18.0380000
 103.7179408  39.1799408  17.3450000 117.1329408  43.4899408   6.5760000
 116.2129408  43.7239408   6.4540000 117.5309408  44.2739408   6.9540000
  95.3919408  39.8369408  21.5440000  94.4879408  40.0839408  21.7380000
  95.8819408  40.6569408  21.5990000 105.6989408  43.6459408  21.5090000
 104.9289408  44.2119408  21.4530000 105.7449408  43.3939408  22.4310000
  95.3759408  35.8509408   4.5400000  95.9379408  36.5929408   4.3170000
  95.1269408  36.0039408   5.4520000 111.4999408  50.8909408  21.6630000
 111.5299408  51.8449408  21.5890000 111.2169408  50.5929408  20.7990000
 106.1989408  42.7839408  24.3270000 106.9519408  42.3809408  24.7590000
 105.5079408  42.1229408  24.3830000 110.3079408  42.6819408  21.5200000
 109.5659408  42.7069408  22.1230000 110.0339408  43.2229408  20.7790000
 113.5869408  41.2759408   3.3410000 112.6949408  41.6219408   3.3230000
 114.1119408  41.9439408   2.9000000  97.8799408  56.0279408  23.7110000
  98.5289408  56.2299408  23.0370000  97.0729408  55.8609408  23.2240000
 108.4169408  44.7709408  20.7260000 108.8399408  45.1919408  21.4750000
 107.5249408  44.5919408  21.0240000 104.9759408  45.1649408  23.9550000
 105.6309408  45.7189408  23.5300000 105.4869408  44.4979408  24.4130000
 110.1269408  47.4139408  17.2570000 110.8569408  48.0169408  17.1180000
 110.2649408  47.0689408  18.1390000 107.7229408  39.0149408  14.5310000
 108.2079408  39.8399408  14.5330000 107.7629408  38.7109408  15.4380000
 107.0589408  34.2909408   3.6940000 107.3229408  33.4279408   4.0130000
 106.3329408  34.1129408   3.0950000 102.1429408  43.0499408  23.4810000
 102.7959408  43.1569408  22.7890000 101.8279408  43.9369408  23.6530000
  99.2999408  34.7489408  16.6790000  98.4779408  34.7659408  16.1890000
  99.0309408  34.7099408  17.5970000 100.2849408  39.8869408  12.5980000
 100.8409408  39.1149408  12.4900000 100.1829408  39.9779408  13.5460000
 101.5199408  40.6549408  24.6330000 101.7749408  41.4879408  24.2350000
 100.7539408  40.3749408  24.1320000 118.8309408  37.2719408   2.2880000
 118.8699408  36.9779408   3.1980000 119.5399408  36.7969408   1.8530000
 102.8319408  36.0959408  25.8560000 102.2219408  36.7999408  26.0740000
 102.2899408  35.4319408  25.4300000 112.0739408  39.3869408  29.4840000
 112.9599408  39.0269408  29.4310000 111.4999408  38.6319408  29.3590000
 107.8369408  35.8009408  18.3520000 108.7399408  35.6199408  18.0890000
 107.7859408  36.7559408  18.3950000 105.8959408  49.4069408  24.8660000
 105.5879408  48.8379408  25.5710000 106.8499408  49.3899408  24.9430000
 102.3099408  47.8379408  18.4750000 101.5999408  47.7869408  17.8350000
 102.9599408  48.4099408  18.0670000 111.5769408  40.0929408  13.5580000
 110.8019408  40.5149408  13.9290000 111.6999408  40.5189408  12.7100000
  93.0429408  42.8729408  25.6090000  93.5349408  42.7249408  24.8020000
  92.7319408  42.0039408  25.8640000 104.6799408  59.2389408  26.7010000
 105.3729408  59.7719408  26.3100000 104.3379408  59.7769408  27.4150000
  95.6739408  53.6199408   0.0820000  96.0949408  53.8689408   0.9050000
  96.3839408  53.2649408  -0.4520000  93.0279408  48.2679408   1.4330000
  93.1569408  49.2159408   1.4620000  93.8729408  47.9189408   1.1520000
  95.6639408  38.1749408  18.2520000  96.2629408  37.8789408  18.9380000
  95.1889408  37.3859408  17.9920000  95.9109408  36.2639408  23.1760000
  95.8639408  35.3079408  23.1610000  95.2579408  36.5469408  22.5370000
  93.5549408  42.7819408   3.2750000  92.7219408  42.4139408   3.5720000
  93.4619408  43.7249408   3.4110000 102.0799408  32.2879408  25.6550000
 101.8949408  32.3419408  26.5920000 101.6749408  33.0719408  25.2840000
  93.4729408  39.6029408  27.1470000  93.7089408  38.7169408  26.8730000
  94.0979408  39.8149408  27.8400000 110.1159408  33.8369408  15.0270000
 110.6079408  34.5009408  14.5440000 109.2639408  33.8059408  14.5920000
  99.1499408  59.6889408  22.5040000  99.9349408  60.2339408  22.5540000
  99.1679408  59.3219408  21.6200000 100.2899408  46.9219408  26.2360000
 100.6129408  46.3839408  25.5120000 100.5349408  47.8159408  25.9980000
  95.6959408  36.5609408  27.9650000  96.2729408  36.7839408  27.2350000
  96.2299408  36.7069408  28.7460000  99.0229408  40.0999408  23.4030000
  98.3649408  40.6929408  23.7660000  98.5369408  39.3039408  23.1870000
  92.6359408  39.1879408  12.6550000  92.1249408  39.8089408  13.1730000
  91.9839408  38.6069408  12.2650000 100.1199408  31.7629408   3.4120000
  99.5699408  31.8339408   2.6310000 100.9739408  32.0939408   3.1340000
 105.5569408  55.5499408  26.2860000 104.8219408  54.9969408  26.0220000
 106.0899408  55.6339408  25.4950000  97.1549408  37.1399408  25.5410000
  96.6739408  37.0259408  24.7220000  97.2739408  38.0859408  25.6200000
 104.3109408  40.8199408  25.0000000 103.4729408  40.6859408  24.5580000
 104.6099408  39.9379408  25.2200000 114.7679408  36.0699408  17.1460000
 113.8289408  36.0299408  16.9640000 115.1819408  35.7409408  16.3480000
  95.1569408  41.4689408  15.1180000  94.3929408  41.0489408  15.5120000
  95.9069408  41.0229408  15.5130000 106.3049408  47.8459408  18.6500000
 106.4699408  48.5339408  18.0040000 106.6669408  47.0539408  18.2540000
 101.4229408  31.4139408  22.3640000 101.7979408  31.2949408  23.2370000
 102.1729408  31.6199408  21.8060000  94.3739408  32.0349408  22.5920000
  95.0449408  32.5869408  22.9950000  93.7539408  32.6539408  22.2080000
  97.8019408  46.5439408   7.0640000  97.6149408  45.6139408   7.1890000
  97.8329408  46.9049408   7.9500000  99.5459408  44.8449408  27.9910000
  99.9689408  45.6099408  27.6000000  99.0599408  45.1949408  28.7380000
  91.7749408  30.6259408  28.9360000  92.5749408  31.0719408  29.2140000
  91.1079408  31.3129408  28.9280000 102.7309408  42.2139408  18.9580000
 102.2289408  41.4239408  18.7610000 102.6519408  42.7509408  18.1690000
  93.0389408  57.9559408  28.5700000  93.2659408  57.7619408  27.6600000
  92.9049408  58.9029408  28.5870000  98.8229408  49.2789408  28.8730000
  99.0599408  48.7649408  29.6450000  98.2279408  49.9509408  29.2050000
 100.8119408  34.5099408  24.7060000  99.9129408  34.5729408  25.0290000
 100.7219408  34.4639408  23.7540000  98.1589408  41.4079408  29.5170000
  99.1069408  41.5379408  29.5250000  97.9899408  40.8219408  30.2550000
  97.4109408  38.2469408  22.5390000  97.0039408  37.3889408  22.6570000
  96.8979408  38.6629408  21.8460000  95.9589408  32.4859408  29.6520000
  95.4029408  32.4139408  30.4270000  95.4749408  32.0279408  28.9650000
 118.9339408  29.9049408  27.3680000 119.3039408  30.6489408  27.8430000
 119.4589408  29.8439408  26.5700000 108.8269408  33.5309408  22.3500000
 108.8589408  32.6169408  22.6340000 109.3369408  33.5479408  21.5400000
 103.0339408  44.4019408   3.2410000 103.4299408  44.6769408   2.4150000
 102.6019408  43.5729408   3.0360000 104.6579408  31.6439408  24.3280000
 105.2989408  31.5509408  25.0330000 103.8909408  32.0299408  24.7510000
  99.2199408  40.8319408  20.8010000  98.2959408  40.9889408  20.6070000
  99.2279408  40.5439408  21.7140000  98.1889408  47.1529408  23.5900000
  99.0689408  47.0679408  23.9560000  97.9749408  48.0809408  23.6910000
  97.2109408  38.0059408   5.3860000  96.6419408  38.7579408   5.5510000
  97.9689408  38.1489408   5.9520000 120.1159408  38.1649408  11.4220000
 120.1929408  37.2509408  11.1470000 119.2939408  38.4639408  11.0340000
 111.0649408  39.6399408   2.0140000 111.5329408  39.0169408   2.5690000
 111.5449408  39.6309408   1.1850000  94.8949408  48.8529408   6.4910000
  95.2919408  49.6979408   6.7040000  95.4089408  48.5259408   5.7530000
  90.8779408  59.1329408   1.2170000  91.1779408  59.6449408   0.4660000
  91.0379408  58.2229408   0.9670000  96.9089408  34.5699408  15.4710000
  96.4269408  35.1219408  14.8560000  96.2819408  34.3849408  16.1700000
 105.2509408  38.2789408  25.3330000 104.5369408  37.6459408  25.4040000
 105.7219408  38.2039408  26.1630000 106.1519408  46.8349408   6.9130000
 105.4469408  46.5409408   6.3350000 105.7099408  47.0769408   7.7270000
  91.6169408  39.6609408  25.2060000  92.3259408  39.5369408  25.8370000
  92.0529408  39.9679408  24.4120000 105.4429408  30.1609408  13.2290000
 106.1079408  29.5109408  13.4580000 105.5879408  30.8799408  13.8430000
 114.0269408  49.3799408  21.4100000 114.2849408  48.4959408  21.6720000
 113.1719408  49.5119408  21.8210000 104.3959408  48.1949408  10.7400000
 104.3709408  48.1429408  11.6950000 104.2869408  47.2889408  10.4480000
  95.1149408  34.0059408  26.8730000  94.1869408  34.1409408  26.6820000
  95.3489408  34.7299408  27.4530000  94.5679408  42.7609408  23.3450000
  94.5269408  43.7069408  23.4870000  94.8839408  42.6679408  22.4460000
 111.5419408  32.2789408  24.3060000 111.1949408  32.1159408  23.4290000
 111.4429408  31.4439408  24.7630000 104.6329408  53.1429408  10.1660000
 104.8209408  53.6079408   9.3500000 104.7559408  52.2189408   9.9490000
 105.3159408  42.0549408  16.3340000 104.9349408  42.8129408  16.7780000
 106.1729408  41.9419408  16.7450000 112.2929408  47.8109408  23.8080000
 112.1829408  47.0259408  24.3450000 112.7159408  48.4419408  24.3890000
  99.7159408  47.2639408   0.6440000 100.4809408  46.8889408   0.2080000
 100.0779408  47.7609408   1.3780000  99.6429408  57.8269408  24.9720000
  99.4569408  57.5769408  24.0670000 100.3899408  58.4219408  24.9080000
  97.2109408  41.8149408  24.3940000  96.3699408  42.1359408  24.0660000
  97.5599408  42.5409408  24.9100000  90.1669408  38.8079408  20.3710000
  89.8829408  38.0049408  20.8070000  89.9809408  39.5029408  21.0020000
 101.3649408  39.9299408  18.7550000 100.7509408  39.2719408  18.4300000
 101.2129408  39.9549408  19.7000000 104.3869408  50.9349408   1.0510000
 103.5169408  51.2199408   0.7720000 104.8489408  50.7409408   0.2360000
 100.7769408  39.9669408  15.3550000 101.7099408  40.1599408  15.2610000
 100.7469408  39.1889408  15.9110000  93.5569408  37.1909408  26.0440000
  94.3569408  36.6719408  26.1280000  93.4109408  37.2549408  25.1000000
 109.8279408  45.7489408  13.0870000 110.5869408  45.7009408  13.6680000
 109.2939408  44.9909408  13.3260000  90.9909408  44.1799408  29.6390000
  91.5389408  44.9439408  29.4570000  90.9489408  44.1369408  30.5940000
 101.3459408  43.1939408  28.8840000 100.7059408  43.7409408  28.4290000
 101.9039408  42.8469408  28.1880000 118.4329408  31.3169408  17.7720000
 118.3759408  30.3929408  18.0160000 118.3789408  31.7879408  18.6040000
 106.9629408  46.6139408  22.6300000 106.8069408  47.5369408  22.8310000
 107.8629408  46.5879408  22.3060000 116.9299408  41.9079408   1.8610000
 116.9209408  42.4829408   2.6270000 117.6339408  41.2839408   2.0360000
 105.8339408  33.3109408   1.4930000 106.3929408  32.5349408   1.4550000
 105.4889408  33.4019408   0.6050000  90.8749408  33.4179408  23.9600000
  90.5559408  32.5409408  23.7490000  91.6379408  33.5389408  23.3940000
 103.8929408  49.7199408  17.2500000 103.8199408  50.5249408  16.7370000
 104.7049408  49.3139408  16.9450000 100.5189408  37.1779408  15.9270000
 100.5439408  36.3239408  16.3590000 100.1409408  36.9999408  15.0660000
 105.9109408  57.6449408  20.9300000 105.4609408  56.9469408  20.4540000
 105.2979408  57.8989408  21.6190000 105.5579408  34.1889408  26.1150000
 104.8629408  34.8469408  26.1260000 105.7909408  34.1009408  25.1910000
 107.6369408  60.0739408  22.6510000 107.4279408  59.3739408  22.0330000
 107.3079408  59.7569408  23.4920000  99.3779408  38.0839408  28.2570000
  98.8019408  38.1769408  27.4980000 100.1869408  38.5259408  28.0000000
  97.9469408  37.0969408  19.7360000  97.9239408  36.1409408  19.7090000
  98.7869408  37.3059408  20.1460000 106.8989408  59.9439408   5.6780000
 106.7499408  59.2089408   6.2740000 106.6159408  59.6199408   4.8230000
  99.8299408  57.2289408   5.4010000  98.9329408  57.4469408   5.1470000
 100.3679408  57.5429408   4.6740000 108.4289408  59.3959408  28.3290000
 107.9429408  58.5779408  28.2260000 108.7299408  59.3839408  29.2380000
  91.1219408  36.0539408   9.6410000  90.6489408  36.3209408   8.8530000
  91.9209408  36.5809408   9.6320000 101.1519408  52.9069408  20.7830000
 101.1849408  51.9589408  20.9060000 100.5209408  53.0349408  20.0740000
 101.0869408  55.7069408   7.3250000 100.8939408  56.1889408   8.1280000
 100.7599408  56.2699408   6.6230000  92.6749408  48.7829408  10.9760000
  93.1839408  49.3299408  11.5740000  93.0549408  48.9529408  10.1140000
 103.9669408  45.5319408   5.7910000 104.1179408  44.5939408   5.6770000
 103.3829408  45.7699408   5.0710000  92.1679408  34.6769408  12.0900000
  91.6919408  35.0179408  11.3330000  91.8439408  35.1909408  12.8290000
  99.7219408  58.0699408   8.6160000  99.4219408  58.0619408   7.7080000
  99.1469408  58.6979408   9.0530000 101.7279408  50.3879408  21.2710000
 101.6209408  49.5149408  20.8940000 102.3419408  50.2629408  21.9960000
 118.0529408  55.8899408  12.2050000 118.2489408  56.7309408  12.6180000
 117.0989408  55.8779408  12.1250000 103.8599408  36.7389408   2.4700000
 103.0679408  37.2019408   2.1940000 103.5509408  36.0939408   3.1060000
  94.9999408  59.5199408  18.2440000  95.1339408  59.6689408  19.1800000
  94.6149408  60.3359408  17.9240000 100.5059408  49.8669408   6.1100000
  99.8559408  49.5139408   5.5030000  99.9949408  50.3779408   6.7380000
 103.0909408  35.1259408   4.6640000 103.6829408  35.1169408   5.4160000
 102.3979408  34.5079408   4.8970000  93.3269408  54.6049408  19.3680000
  94.2059408  54.2289408  19.3230000  93.4169408  55.4729408  18.9750000
  90.0379408  51.4779408   4.6990000  90.9309408  51.1549408   4.5830000
  89.4899408  50.8369408   4.2450000 105.7609408  55.8819408   4.7460000
 105.6409408  55.0999408   4.2060000 104.9199408  55.9989408   5.1890000
 104.2179408  50.3289408  13.1910000 104.4609408  51.2159408  12.9250000
 105.0449408  49.9189408  13.4450000 107.6079408  51.4719408  21.4500000
 107.1129408  52.1989408  21.8280000 107.2049408  50.6879408  21.8230000
 102.8429408  54.9729408  21.9030000 102.4879408  54.2539408  21.3800000
 103.3269408  55.5089408  21.2750000  94.6779408  52.4899408  16.5850000
  95.2769408  53.2359408  16.6160000  95.2109408  51.7439408  16.8610000
  95.7979408  51.3969408   6.7650000  96.4539408  51.7799408   7.3470000
  94.9819408  51.4349408   7.2640000 120.0089408  51.9419408  29.8560000
 119.3139408  52.0199408  30.5100000 119.9439408  51.0409408  29.5420000
 107.4849408  57.6719408   7.7400000 106.6389408  57.2889408   7.9700000
 107.8719408  57.0489408   7.1250000  92.3099408  48.7869408   5.5240000
  91.6629408  48.6259408   6.2120000  93.1549408  48.6519408   5.9530000
 104.3059408  58.7819408   7.3720000 104.7559408  58.1469408   7.9280000
 103.9669408  58.2639408   6.6420000 114.3189408  54.7159408  14.1060000
 114.8969408  53.9829408  13.8980000 114.5489408  55.3919408  13.4680000
  96.4959408  48.9039408   2.3800000  95.9039408  49.5189408   1.9470000
  95.9969408  48.0889408   2.4350000  95.8519408  57.3879408  29.9390000
  95.2559408  57.5509408  29.2070000  95.3619408  56.8089408  30.5230000
 106.4369408  49.0669408  21.2430000 106.5039408  48.3559408  20.6060000
 105.6939408  49.5899408  20.9420000  97.2649408  53.0889408   3.3920000
  97.5729408  53.8519408   2.9040000  97.6459408  53.1919408   4.2640000
 100.3759408  53.4779408  17.1180000  99.6279408  53.2069408  17.6500000
 100.5139408  52.7509408  16.5100000 105.4449408  55.1009408  14.0140000
 106.2459408  55.2109408  13.5020000 105.0809408  54.2679408  13.7140000
  99.1669408  35.4379408   5.7480000  98.8509408  35.6709408   4.8750000
  99.4189408  34.5179408   5.6750000  94.2729408  50.1469408  12.5690000
  93.8439408  50.9559408  12.8460000  95.0339408  50.0699408  13.1450000
  93.2469408  45.4839408   3.2100000  93.6359408  46.1419408   2.6340000
  93.7999408  45.4919408   3.9910000  94.1789408  47.7809408   8.9290000
  94.2309408  48.1619408   8.0530000  93.5919408  47.0319408   8.8310000
 101.1639408  59.3629408  14.0990000 101.9599408  59.0219408  14.5070000
 100.8289408  60.0059408  14.7250000 101.2709408  59.4239408   0.7540000
 101.1439408  59.1009408  -0.1380000 100.7259408  60.2099408   0.8040000
 100.1639408  44.3359408  17.9330000  99.7059408  43.4989408  17.8530000
 100.9369408  44.2409408  17.3770000  96.7049408  54.8669408   7.0240000
  97.3139408  54.3839408   6.4660000  96.0519408  55.2189408   6.4190000
  90.7809408  47.7779408   3.0700000  91.3749408  47.8329408   3.8190000
  91.3059408  48.0689408   2.3250000  96.9129408  56.0559408  13.0170000
  96.7609408  56.9919408  13.1450000  97.8609408  55.9539408  13.1010000
  99.9689408  55.5049408  11.5150000 100.0609408  56.2039408  12.1630000
  99.5309408  55.9229408  10.7730000 102.8559408  32.0519408   9.6080000
 103.6339408  31.5559408   9.8640000 102.6389408  32.5739408  10.3800000
 100.9059408  52.2719408   1.9450000 100.8709408  51.3879408   1.5790000
 100.4339408  52.8129408   1.3120000  90.6149408  44.7429408   2.4330000
  89.9859408  45.4539408   2.5520000  91.4659408  45.1429408   2.6100000
 105.8529408  53.8829408   7.9390000 105.9139408  53.7729408   6.9900000
 106.7569408  54.0099408   8.2250000  97.6779408  45.6369408  18.2270000
  97.3809408  45.6059408  19.1360000  98.4549408  45.0779408  18.2080000
  94.3649408  52.5619408  10.9050000  93.8259408  53.0119408  11.5560000
  95.0559408  53.1889408  10.6910000 101.6299408  53.2589408  11.2250000
 101.9139408  53.2529408  10.3110000 100.9499408  53.9319408  11.2610000
  93.3079408  52.3489408  14.1740000  93.6449408  53.1049408  13.6930000
  93.8179408  52.3319408  14.9840000 110.0859408  33.0319408   1.4180000
 110.4329408  32.3479408   0.8450000 109.2249408  32.7079408   1.6830000
 118.1769408  32.4219408  20.1510000 117.3749408  32.2089408  20.6290000
 118.4289408  33.2859408  20.4760000 109.2209408  58.9019408   9.3070000
 108.6819408  59.2899408   9.9960000 108.5979408  58.6619408   8.6210000
  90.9919408  29.9949408  25.7370000  91.7769408  30.0659408  25.1940000
  91.2419408  30.3889408  26.5730000  90.7819408  46.6869408  15.9170000
  90.1779408  46.2529408  16.5200000  90.3069408  47.4619408  15.6180000
  96.7389408  54.1779408   9.9850000  96.8389408  55.0859408  10.2700000
  96.8689408  54.2079408   9.0370000 100.4329408  31.4439408  15.7220000
 100.5989408  31.4719408  16.6650000 100.7079408  32.3039408  15.4050000
 101.3089408  49.2199408  25.3400000 102.0399408  49.3309408  24.7320000
 101.4799408  49.8519408  26.0380000  93.3309408  49.3729408  18.2010000
  92.4419408  49.5659408  18.5000000  93.8949408  49.6769408  18.9110000
 116.3379408  38.5209408  14.7070000 115.9319408  39.3879408  14.7270000
 115.5999408  37.9109408  14.7000000  93.1059408  51.9459408   8.1800000
  93.4189408  52.7029408   8.6760000  92.1519408  52.0229408   8.2010000
  97.0619408  51.4499408   9.2770000  97.2629408  52.2119408   9.8210000
  96.5489408  50.8769408   9.8470000 102.4839408  56.0199408  29.2340000
 102.1589408  55.9759408  30.1330000 101.7009408  56.1619408  28.7020000
 102.0659408  58.8869408   9.7040000 101.2279408  58.5389408   9.3980000
 102.5209408  59.1529408   8.9050000 101.2699408  56.0949408  16.5260000
 101.8939408  56.0249408  15.8040000 101.2699408  55.2259408  16.9290000
 100.8659408  48.4719408   2.7640000 100.6719408  49.4039408   2.8690000
 101.5619408  48.2989408   3.3990000 103.6439408  30.4429408   1.8470000
 102.8629408  30.2199408   1.3410000 103.6489408  31.3999408   1.8730000
  93.1739408  30.5829408   4.5740000  94.1289408  30.6499408   4.5680000
  92.8779408  31.4079408   4.9580000  99.4209408  51.4549408   7.9740000
  98.8169408  51.4819408   8.7160000 100.2109408  51.8929408   8.2920000
 118.8549408  53.9129408  10.4620000 118.1329408  53.2899408  10.3720000
 118.5459408  54.5469408  11.1090000  99.8059408  45.8759408  21.7940000
  98.8959408  46.1509408  21.9020000  99.7489408  44.9669408  21.5000000
  97.9939408  51.3219408  14.6600000  98.8919408  51.3319408  14.9910000
  97.9779408  52.0019408  13.9870000 115.4639408  55.1709408   8.5830000
 114.5769408  55.4189408   8.3240000 115.9009408  54.9499408   7.7600000
 114.4759408  50.8279408  19.0240000 115.3199408  51.0919408  18.6570000
 114.7019408  50.2359408  19.7420000  98.2409408  49.7249408  25.2630000
  98.0479408  49.1849408  26.0300000  99.1959408  49.7239408  25.2030000
 102.9509408  31.3049408  12.5350000 103.5739408  30.6049408  12.7320000
 102.1069408  30.9639408  12.8300000 119.8429408  56.8959408   8.9490000
 119.2369408  56.1979408   8.6960000 120.4319408  56.4839408   9.5810000
 103.2739408  56.0209408   5.5640000 103.0779408  55.8549408   6.4860000
 102.5129408  55.6839408   5.0920000 103.9679408  53.1959408  12.7510000
 103.0609408  53.1179408  12.4530000 104.4749408  53.3119408  11.9480000
  97.9659408  53.2009408  24.6000000  98.6309408  52.7009408  24.1270000
  97.9549408  54.0549408  24.1660000 118.8189408  58.9629408  19.5480000
 119.3499408  58.7979408  20.3270000 117.9169408  58.8389408  19.8420000
  97.1999408  32.1849408  19.7970000  97.7519408  31.4189408  19.6400000
  96.4489408  31.8439408  20.2840000 106.6659408  42.2829408   1.1970000
 106.1439408  43.0379408   0.9240000 106.2319408  41.9649408   1.9890000
 101.4439408  45.8639408  23.9440000 102.0879408  46.3889408  23.4680000
 100.7859408  45.6379408  23.2870000 104.5009408  42.8519408   5.8720000
 104.3729408  42.6739408   6.8040000 103.6179408  42.8409408   5.5020000
 100.8959408  49.7499408   9.9370000 100.1039408  49.8069408  10.4710000
 101.6099408  49.9329408  10.5480000 109.0259408  44.6979408   5.6060000
 109.1789408  45.5409408   6.0320000 108.8219408  44.0999408   6.3250000
  96.7689408  58.4729408  14.2330000  97.3599408  59.2059408  14.4070000
  95.9639408  58.6979408  14.6990000  99.7699408  52.6009408  26.6800000
  99.2829408  52.6389408  25.8560000  99.7329408  53.4939408  27.0220000
 117.3529408  30.3099408  12.8330000 117.5099408  29.6729408  13.5300000
 117.9369408  31.0399408  13.0390000 102.1129408  48.3489408   7.7370000
 101.7449408  48.5769408   8.5910000 101.5649408  48.8179408   7.1070000
 114.6629408  49.5749408  12.4850000 114.9049408  48.8659408  13.0800000
 114.1909408  49.1409408  11.7740000  91.4539408  59.7109408  15.8930000
  91.4329408  60.6619408  16.0040000  92.2849408  59.5399408  15.4500000
  96.8329408  50.5419408  17.8900000  97.4509408  49.8449408  17.6710000
  96.2749408  50.1639408  18.5700000 115.2199408  44.8659408   1.3530000
 115.3179408  44.0859408   0.8060000 114.4369408  45.3009408   1.0120000
 108.8679408  57.6099408   3.3490000 109.7269408  57.3279408   3.6620000
 108.2529408  57.2769408   4.0020000  98.3579408  34.1779408   1.8600000
  98.4489408  34.8209408   2.5630000  97.5369408  33.7239408   2.0540000
 101.2019408  58.7629408   3.4690000 101.2119408  59.5939408   3.9450000
 101.6049408  58.9659408   2.6240000  96.1329408  53.5059408  20.1000000
  96.3269408  53.2889408  19.1880000  96.9599408  53.8419408  20.4480000
 100.2109408  58.4339408  11.9620000 101.0079408  58.2959408  11.4500000
 100.5229408  58.6039408  12.8510000 107.3879408  52.3639408  27.4260000
 107.6389408  52.8729408  28.1970000 108.1209408  52.4709408  26.8190000
  91.6809408  58.4499408   7.5820000  92.3499408  57.9409408   7.1260000
  90.8959408  57.9039408   7.5440000 115.9239408  52.7609408  13.2040000
 115.7279408  52.7439408  12.2670000 116.0819408  51.8459408  13.4340000
 109.3099408  56.6769408  14.0320000 109.6109408  56.8749408  14.9190000
 109.3619408  55.7229408  13.9680000  93.3539408  54.7089408   9.0660000
  93.7559408  55.5449408   9.3010000  92.5179408  54.9489408   8.6650000
  91.4129408  56.7549408   0.3960000  92.1889408  57.0679408  -0.0690000
  91.2349408  55.8959408   0.0140000 119.6089408  57.8679408  15.3230000
 120.1049408  57.1339408  14.9590000 120.2649408  58.5469408  15.4810000
 112.3659408  44.6299408   8.6880000 111.7399408  44.6659408   9.4110000
 113.1379408  45.0919408   9.0160000  91.5119408  49.0599408  13.6060000
  90.8219408  49.4449408  13.0660000  92.0049408  48.5029408  13.0030000
  93.9449408  56.8669408  18.1460000  93.7629408  56.8199408  17.2080000
  94.4529408  57.6719408  18.2510000 103.2799408  52.0519408  15.6120000
 102.3279408  51.9589408  15.6370000 103.5199408  51.8259408  14.7140000
 102.9559408  51.3659408   6.3640000 103.4859408  51.8059408   5.6990000
 102.4029408  50.7609408   5.8690000  93.4409408  36.1809408   1.9050000
  94.0029408  36.8479408   1.5100000  93.9759408  35.7989408   2.6010000
 107.0119408  53.5979408   0.0990000 107.4669408  54.3679408   0.4400000
 106.1409408  53.9179408  -0.1370000  97.1949408  52.4749408  28.1130000
  96.6079408  52.3649408  27.3650000  98.0739408  52.3999408  27.7400000
 108.2589408  42.5979408   7.4360000 107.7069408  41.9699408   6.9700000
 107.6589408  43.0499408   8.0290000  90.1369408  33.5589408   5.8370000
  89.9919408  32.6449408   5.5950000  90.0729408  33.5669408   6.7920000
 105.3399408  50.8529408  28.1340000 104.7079408  51.5289408  27.8920000
 106.1799408  51.1839408  27.8140000 109.9039408  30.2909408  26.3150000
 109.3069408  30.0529408  27.0240000 110.2959408  31.1169408  26.5980000
 116.3759408  53.1479408  22.1470000 115.9069408  53.8409408  21.6830000
 117.2419408  53.1299408  21.7400000  98.6959408  34.9359408  26.2190000
  98.5659408  34.8349408  27.1620000  97.9669408  35.4869408  25.9330000
  95.0549408  30.9999408  27.6170000  95.2369408  31.8089408  27.1400000
  94.9239408  30.3429408  26.9330000 102.6159408  52.0489408  24.5270000
 102.7129408  51.7699408  25.4380000 103.1399408  51.4229408  24.0270000
  94.7479408  56.4299408   2.0810000  94.8309408  55.7089408   2.7050000
  93.9279408  56.8609408   2.3190000  99.2759408  56.4629408  14.7030000
  99.7309408  56.2569408  15.5190000  99.1089408  57.4049408  14.7520000
 113.3719408  59.3539408  16.9710000 113.3079408  58.3989408  16.9860000
 112.9949408  59.6059408  16.1290000 106.2559408  53.4489408  22.4580000
 105.9049408  53.5529408  21.5740000 105.4959408  53.5559408  23.0320000
  96.9949408  45.9949408  20.7340000  96.4209408  45.7369408  21.4560000
  96.9939408  46.9519408  20.7580000 106.4109408  57.9309408  16.0400000
 106.7929408  58.4529408  16.7440000 106.9819408  58.0879408  15.2870000
 104.1419408  54.1589408  24.0840000 103.6309408  53.3779408  24.2940000
 103.5819408  54.6599408  23.4910000 103.5379408  46.9969408  22.3460000
 104.1009408  46.3869408  22.8230000 103.4289408  46.5979408  21.4830000
 103.4829408  49.4799408  23.5240000 103.6019408  48.6709408  23.0260000
 104.1959408  49.4769408  24.1620000  95.5179408  50.8639408   0.6340000
  94.6129408  50.9029408   0.3240000  95.8689408  51.7369408   0.4600000
  93.9199408  53.7329408  27.9040000  93.7749408  52.7969408  27.7640000
  94.6069408  53.7729408  28.5690000 113.3409408  55.3679408  26.2690000
 113.8739408  55.7849408  25.5910000 112.6439408  55.9989408  26.4470000
 111.0999408  57.1969408  26.2780000 110.7519408  57.3389408  25.3980000
 111.3499408  58.0699408  26.5810000 104.6979408  55.7839408  19.6430000
 104.8279408  55.7939408  18.6940000 104.6369408  54.8559408  19.8670000
 101.6579408  59.4879408  25.1230000 101.5199408  60.2759408  25.6490000
 102.5939408  59.3049408  25.2060000  95.6269408  55.5319408  22.0670000
  96.1349408  55.9269408  21.3580000  95.2669408  54.7309408  21.6870000
  98.4599408  32.5539408  24.9290000  98.0919408  31.8119408  25.4080000
  98.4689408  33.2689408  25.5650000  93.5699408  50.9729408  27.9310000
  92.6959408  50.8599408  27.5580000  94.1639408  50.6609408  27.2500000
 114.5209408  47.0009408  22.3890000 115.1209408  46.3069408  22.6620000
 113.6929408  46.7869408  22.8180000 101.6979408  50.0789408  29.7730000
 100.8099408  49.8989408  29.4640000 102.0089408  49.2409408  30.1130000
 100.6369408  51.0749408  15.7480000 101.0509408  50.3259408  16.1760000
 100.8889408  50.9959408  14.8280000  97.8009408  47.6069408  26.9660000
  97.9509408  48.0929408  27.7770000  98.6709408  47.3129408  26.6970000
 104.6939408  57.6009408  29.4540000 103.7959408  57.3609408  29.6810000
 104.6029408  58.1929408  28.7070000 104.6019408  58.8039408  23.5100000
 105.1489408  58.3629408  24.1610000 104.6489408  59.7299408  23.7450000
  98.0119408  55.6129408  29.1090000  97.3469408  55.9979408  29.6800000
  97.5689408  55.4959408  28.2690000 107.2359408  55.8399408  24.2300000
 107.9919408  55.7569408  23.6490000 106.6439408  55.1399408  23.9550000
 106.3829408  55.0279408  16.5230000 105.9809408  54.9789408  15.6560000
 106.6939408  55.9299408  16.5930000  89.8979408  55.6919408  22.9550000
  89.7849408  54.8959408  23.4740000  90.8379408  55.7319408  22.7780000
  98.7329408  55.2859408   2.7840000  99.4529408  55.3559408   2.1580000
  98.2929408  56.1349408   2.7390000 116.7709408  33.6649408  22.7270000
 116.7729408  32.8369408  23.2070000 117.3549408  34.2339408  23.2270000
  95.4859408  47.0279408  25.4590000  95.3769408  46.1209408  25.7470000
  96.3439408  47.2849408  25.7970000  99.9189408  33.5539408  21.8240000
  99.1149408  33.4609408  22.3350000 100.5089408  32.8899408  22.1800000
 101.3379408  58.9519408  27.8980000 100.3879408  58.9459408  27.7800000
 101.6909408  58.7969408  27.0220000  98.4839408  42.6569408  12.7750000
  98.7579408  43.2109408  12.0450000  99.2489408  42.1129408  12.9640000
  94.8689408  52.0059408   4.4930000  95.4839408  52.3369408   3.8380000
  95.3879408  51.9349408   5.2950000  91.1839408  53.8679408   2.2820000
  91.7039408  53.3719408   1.6500000  91.6219408  53.7219408   3.1200000
  91.2759408  50.9209408  22.3260000  91.5259408  50.2529408  21.6880000
  91.9619408  51.5849408  22.2600000  97.4129408  56.2019408  20.0570000
  97.4249408  56.6489408  19.2110000  98.2419408  56.4469408  20.4690000
 100.8449408  32.1909408  28.1290000  99.9649408  31.9919408  27.8090000
 100.7209408  32.4099408  29.0520000 102.1609408  51.0939408  27.1720000
 101.3539408  51.5889408  27.0280000 102.4389408  51.3399408  28.0540000
 111.6459408  55.8579408  19.2480000 111.8839408  55.4889408  18.3980000
 111.1379408  55.1669408  19.6750000  91.9099408  56.0429408  26.4380000
  91.0299408  56.3809408  26.2760000  91.8099408  55.4669408  27.1960000
 116.5009408  53.4099408   3.8900000 117.2679408  53.2959408   3.3290000
 116.1529408  54.2679408   3.6490000 102.1069408  58.3369408  22.1520000
 102.8629408  58.3479408  22.7390000 101.9139408  59.2609408  21.9920000
  96.9049408  59.6589408  24.4020000  97.4049408  59.1249408  25.0190000
  97.5369408  59.8999408  23.7250000 105.8789408  32.1039408  21.6990000
 105.5149408  31.9559408  22.5720000 106.7829408  31.7959408  21.7610000
  98.8949408  51.6709408  19.8570000  98.2309408  51.5909408  19.1720000
  98.9859408  50.7849408  20.2080000 109.3409408  49.3989408  20.3370000
 109.0289408  49.1119408  19.4790000 108.5439408  49.5879408  20.8320000
 107.1019408  45.7249408  25.9070000 107.7749408  46.4049408  25.8650000
 106.2939408  46.1989408  26.1020000 103.0649408  31.5539408  20.0000000
 103.9649408  31.6039408  20.3230000 102.9399408  30.6309408  19.7800000
  98.2529408  31.2669408  28.1430000  97.5959408  31.4079408  28.8250000
  98.1889408  30.3329408  27.9390000 100.1359408  52.0139408  23.1660000
 100.2959408  52.4989408  22.3560000 100.9959408  51.9489408  23.5810000
 108.4869408  38.0279408   1.6070000 109.1999408  38.3819408   2.1380000
 108.0509408  38.7999408   1.2450000 105.1319408  47.2609408  26.3960000
 105.2409408  47.6919408  27.2440000 104.5449408  46.5269408  26.5740000
  97.2789408  56.4109408  26.2950000  96.3539408  56.2849408  26.0820000
  97.7199408  56.4259408  25.4460000 104.4529408  50.9099408   3.7780000
 104.3679408  50.7669408   2.8350000 105.0229408  50.2019408   4.0770000
  97.1399408  57.5469408  17.6840000  96.8289408  57.2759408  16.8200000
  96.5409408  58.2459408  17.9460000 115.0939408  33.0129408  25.4040000
 114.7599408  32.6939408  24.5660000 115.6369408  32.2969408  25.7340000
 105.7979408  58.7229408   3.2530000 105.6619408  57.7969408   3.0530000
 105.1299408  59.1799408   2.7420000  99.0859408  31.1759408   1.1750000
  98.4019408  30.5059408   1.1510000  98.6729408  31.9539408   0.8020000
  98.0329408  59.1679408  10.5370000  98.6119408  58.8459408  11.2270000
  97.5109408  59.8489408  10.9610000 102.8329408  46.8609408  13.8650000
 102.4649408  45.9809408  13.9370000 102.1939408  47.3459408  13.3420000
  98.4229408  58.5869408  27.7970000  98.0969408  58.0029408  27.1120000
  98.0209408  58.2599408  28.6020000 103.1219408  45.2349408  26.3590000
 102.9999408  44.2859408  26.3360000 103.2029408  45.4879408  25.4390000
  95.5019408  30.1759408  20.8970000  95.1519408  30.8029408  21.5300000
  95.3639408  29.3209408  21.3060000 104.6709408  37.7959408   5.3550000
 105.3629408  37.6749408   4.7050000 104.3999408  36.9069408   5.5840000
 102.2429408  36.3459408   7.8770000 103.0639408  35.9189408   7.6340000
 101.5769408  35.9019408   7.3520000 100.7739408  36.2109408  29.9660000
 101.1209408  36.8889408  30.5450000 100.1539408  36.6719408  29.4000000
 114.9609408  45.1169408   6.4150000 114.0719408  45.3439408   6.1410000
 115.4919408  45.8699408   6.1570000 109.3769408  37.5459408  12.7920000
 109.5639408  37.9789408  11.9590000 108.9799408  38.2279408  13.3340000
 119.9389408  42.9329408  20.1570000 119.2409408  43.5489408  19.9330000
 119.5489408  42.0699408  20.0180000 113.4369408  38.0999408  14.6000000
 113.0629408  38.4679408  13.7990000 113.0709408  37.2169408  14.6520000
 117.4789408  33.9939408  10.6530000 117.3369408  34.2939408   9.7560000
 117.7139408  33.0699408  10.5640000 113.8419408  37.9109408  11.1330000
 113.2649408  38.4849408  10.6300000 114.5029408  37.6239408  10.5030000
 114.1399408  31.3499408  10.9420000 113.2239408  31.4689408  11.1920000
 114.1099408  30.7419408  10.2040000 112.8249408  51.8459408  29.9020000
 113.1099408  51.1609408  30.5080000 113.3979408  51.7459408  29.1420000
  90.0609408  36.7279408  17.5830000  90.7789408  37.3319408  17.7720000
  89.7179408  37.0209408  16.7390000 109.3879408  42.0239408   1.7080000
 108.4449408  42.1189408   1.5730000 109.5609408  41.0969408   1.5410000
 108.6229408  34.8899408  12.5080000 109.1929408  34.4829408  11.8550000
 108.9969408  35.7609408  12.6440000 118.2209408  53.3229408  14.8680000
 117.5639408  53.4529408  14.1850000 119.0359408  53.1649408  14.3900000
 117.7609408  32.7849408   3.9490000 118.2159408  32.0179408   3.6010000
 117.0409408  32.9349408   3.3370000 105.8699408  37.0169408   0.6600000
 105.2029408  36.8519408   1.3270000 106.4569408  37.6569408   1.0610000
 109.5339408  47.2399408  26.6460000 110.2919408  46.8729408  26.1910000
 109.5379408  46.8119408  27.5020000 115.9399408  35.4359408  14.7680000
 116.1589408  35.8389408  13.9280000 115.7629408  34.5199408  14.5560000
 115.4509408  36.9699408   5.4990000 114.8859408  36.2069408   5.3780000
 115.7639408  37.1789408   4.6180000  90.4629408  52.8909408  13.2580000
  90.2129408  51.9829408  13.0880000  91.3599408  52.8359408  13.5870000
 104.7979408  41.2589408  20.4950000 104.1209408  41.7319408  20.0110000
 105.3779408  41.9449408  20.8280000 108.4659408  53.8039408   9.1880000
 108.8379408  54.6159408   8.8460000 108.9149408  53.1109408   8.7040000
 106.7079408  37.0059408   3.8860000 107.1969408  37.5149408   3.2390000
 106.7849408  36.0999408   3.5860000  95.6159408  33.9159408  17.9620000
  96.1299408  33.4149408  18.5940000  95.1099408  33.2559408  17.4870000
 115.2969408  35.6169408  19.7390000 116.1719408  35.2819408  19.5430000
 114.9219408  35.8239408  18.8830000 100.5079408  37.1349408  20.9140000
 101.3479408  36.7929408  20.6060000 100.6289408  37.2549408  21.8560000
  95.4309408  38.9249408  13.3460000  94.5449408  38.8439408  13.6980000
  95.4069408  39.7229408  12.8170000 119.5329408  30.6999408   3.3760000
 120.1959408  30.7629408   2.6890000 119.1429408  29.8339408   3.2540000
 109.1209408  41.3209408  13.8360000 108.7309408  41.3989408  12.9650000
 108.7629408  42.0599408  14.3270000 113.4509408  46.6139408  17.9200000
 113.0099408  47.2459408  17.3520000 112.8429408  46.4799408  18.6470000
  91.2429408  55.3819408  11.0890000  91.8839408  54.7989408  10.6820000
  90.4409408  54.8619408  11.1370000  90.5589408  33.4369408   2.1060000
  90.9039408  33.9419408   1.3700000  89.6199408  33.3699408   1.9320000
 115.4529408  53.0009408   6.3470000 116.1639408  52.5919408   6.8410000
 115.8259408  53.1649408   5.4810000 109.8289408  42.1619408   4.8400000
 110.2879408  42.3219408   5.6640000 109.5549408  43.0299408   4.5450000
 108.0169408  37.0069408  27.2190000 107.3259408  36.5609408  27.7080000
 108.0999408  36.5049408  26.4080000 115.5609408  41.1319408  15.4750000
 115.1189408  40.5969408  16.1340000 114.8589408  41.6419408  15.0700000
  91.6959408  44.5629408   5.6540000  91.0739408  44.5129408   4.9270000
  91.7619408  43.6639408   5.9750000 116.7429408  33.6139408  17.8620000
 116.4659408  34.0829408  17.0750000 116.0469408  32.9769408  18.0200000
 111.6259408  49.4869408   1.2030000 112.4039408  49.0829408   1.5860000
 111.3859408  50.1789408   1.8190000 109.8959408  37.7829408  29.2340000
 109.4559408  37.5179408  28.4260000 109.2739408  37.5689408  29.9280000
 119.2179408  53.7659408   5.8380000 119.3659408  54.3189408   5.0710000
 119.4309408  52.8809408   5.5410000 111.2669408  30.7559408   8.5830000
 111.3999408  31.0999408   9.4660000 110.5919408  30.0849408   8.6870000
 114.1839408  34.4299408  29.2750000 113.9199408  35.0219408  28.5710000
 113.4349408  34.4179408  29.8720000 117.0209408  30.6149408  23.3560000
 116.1119408  30.3729408  23.1770000 117.4589408  29.7839408  23.5400000
 117.0549408  50.3509408  13.5330000 116.2059408  50.0659408  13.1960000
 117.4329408  49.5649408  13.9270000 113.3629408  35.0449408  11.8150000
 113.7649408  35.8809408  11.5770000 114.1039408  34.4649408  11.9930000
 114.9759408  31.0289408  20.1130000 114.6729408  31.3969408  19.2830000
 114.4759408  31.4979408  20.7810000 112.5319408  53.9129408  16.2690000
 113.3199408  53.8259408  16.8050000 112.8589408  54.0669408  15.3830000
 116.3219408  37.4929408  23.9420000 116.3019408  36.7529408  24.5480000
 117.1049408  37.9849408  24.1900000  90.1739408  41.8329408  11.6060000
  90.4409408  41.6049408  12.4960000  90.8999408  42.3529408  11.2630000
 115.7369408  49.1459408   8.1800000 114.8499408  49.1279408   8.5390000
 116.1869408  48.4239408   8.6170000 106.6539408  39.5689408   7.1000000
 106.2859408  39.1019408   6.3490000 107.5579408  39.2609408   7.1550000
 108.3429408  55.7469408   6.0430000 108.8659408  54.9999408   5.7510000
 107.5969408  55.7659408   5.4440000  94.7929408  55.8129408   5.2480000
  94.3529408  56.6369408   5.4600000  94.0799408  55.1949408   5.0880000
 113.2419408  53.1659408  10.4920000 112.9709408  53.7249408   9.7630000
 112.5509408  52.5069408  10.5570000 115.7379408  56.5139408  16.0000000
 115.5399408  55.6189408  15.7260000 114.8859408  56.8929408  16.2160000
  90.0309408  36.3349408   7.2890000  89.4529408  35.8939408   6.6650000
  90.7089408  36.7369408   6.7450000  95.4109408  31.6389408  14.1010000
  96.3529408  31.5459408  13.9540000  95.1199408  32.2449408  13.4200000
 110.9789408  41.3509408  28.1040000 111.4849408  40.7389408  28.6380000
 111.4719408  41.4199408  27.2860000 102.0409408  33.7889408   0.3090000
 101.4489408  34.5119408   0.1020000 102.7159408  33.8299408  -0.3690000
 114.4599408  32.0869408  17.5660000 114.6979408  32.1839408  16.6440000
 113.9199408  31.2969408  17.5930000  98.5499408  34.3989408  19.4280000
  99.1569408  34.0959408  20.1040000  97.8149408  33.7869408  19.4750000
 117.6739408  37.2299408  28.4930000 118.1929408  38.0039408  28.2730000
 117.5139408  36.7999408  27.6530000 111.2339408  31.7299408  11.0500000
 111.0569408  31.7479408  11.9900000 111.0979408  32.6329408  10.7630000
 112.1169408  36.2239408  16.4610000 111.5759408  36.8179408  16.9810000
 111.6809408  36.1839408  15.6100000 107.0459408  39.7769408  30.0950000
 106.9329408  40.7139408  30.2500000 107.3599408  39.7189408  29.1920000
 117.9949408  31.5439408   9.2960000 117.6689408  30.7739408   9.7610000
 117.5859408  31.4939408   8.4320000  94.1849408  49.2609408  15.5620000
  93.2749408  49.4589408  15.3410000  94.2369408  49.3929408  16.5080000
 111.5719408  46.0879408  19.4610000 111.2589408  46.5549408  20.2350000
 112.0279408  45.3219408  19.8100000 114.5889408  42.8039408  18.0590000
 115.3309408  42.2919408  17.7360000 114.9889408  43.5189408  18.5550000
  92.6959408  34.0899408  21.8710000  92.3059408  33.5869408  21.1560000
  92.9999408  34.8979408  21.4560000 119.8669408  52.4849408  23.7190000
 120.5199408  52.0109408  23.2050000 119.1229408  52.5889408  23.1250000
 112.9719408  59.7709408   6.6800000 112.3179408  60.1079408   7.2920000
 113.6439408  59.3789408   7.2390000 120.0319408  39.3559408   7.3470000
 119.0959408  39.2539408   7.5190000 120.1719408  38.9109408   6.5120000
 102.1399408  37.4559408  12.2220000 103.0799408  37.4309408  12.0430000
 101.9669408  36.6499408  12.7080000 112.2569408  42.3619408  11.4830000
 111.7519408  43.1539408  11.2990000 112.2079408  41.8529408  10.6740000
 117.9939408  38.9349408  18.7130000 118.8849408  38.7869408  19.0320000
 117.4419408  38.4079408  19.2910000 115.9349408  51.0989408  28.9360000
 115.4299408  51.0179408  28.1280000 116.4369408  51.9069408  28.8260000
  92.6369408  38.9269408   8.6340000  93.0599408  39.1289408   9.4690000
  91.7709408  39.3279408   8.7010000  91.9669408  38.2519408  18.4270000
  92.8179408  38.6559408  18.5950000  91.4089408  38.5619408  19.1400000
 117.5039408  35.9579408  12.6760000 117.6349408  35.1329408  12.2080000
 117.4329408  36.6169408  11.9850000  96.0659408  33.5049408   3.3350000
  95.7129408  34.3689408   3.5490000  95.3759408  33.0859408   2.8200000
 110.1629408  33.2489408   7.1740000 110.7889408  32.6829408   7.6270000
 109.4289408  33.3299408   7.7820000 106.8479408  59.6619408  10.6200000
 106.3209408  59.0759408  11.1630000 106.2789408  59.8849408   9.8840000
  95.8869408  40.2809408   5.3640000  95.6359408  40.8369408   6.1020000
  95.8729408  40.8659408   4.6070000 112.0509408  57.8479408  21.3780000
 112.2919408  57.3129408  20.6220000 112.4079408  58.7149408  21.1820000
 116.0049408  58.4509408  20.5770000 115.3879408  57.8689408  20.1320000
 115.6789408  59.3319408  20.3920000 105.9519408  45.9449408   0.6750000
 105.0699408  45.6069408   0.8280000 106.3909408  45.2529408   0.1800000
 112.1649408  37.7679408   8.6350000 113.0789408  37.4839408   8.6030000
 112.1279408  38.5239408   8.0490000 114.3869408  40.8979408   7.2380000
 114.6949408  41.3449408   8.0260000 115.0989408  41.0059408   6.6070000
 110.4669408  57.5979408  16.5020000 110.0149408  58.4079408  16.7400000
 109.9129408  56.9009408  16.8520000 117.1109408  37.9229408  10.7590000
 116.6699408  38.6599408  11.1820000 117.2859408  38.2279408   9.8680000
 114.4309408  38.2329408   0.1660000 114.9999408  38.8329408  -0.3160000
 114.9499408  37.9689408   0.9260000 117.6649408  47.8339408  20.4340000
 117.0099408  47.9209408  21.1270000 117.7929408  48.7259408  20.1110000
 110.4459408  35.7249408   5.9510000 110.6899408  34.9389408   6.4390000
 111.2809408  36.0999408   5.6680000  94.0989408  47.2339408  20.9040000
  93.5579408  47.6299408  20.2210000  94.7849408  47.8809408  21.0720000
 113.0409408  55.6989408   7.7480000 112.2169408  56.1149408   7.4950000
 113.0589408  54.8799408   7.2530000 105.0709408  33.1099408  11.9730000
 105.9309408  32.7019408  11.8700000 104.5769408  32.4959408  12.5170000
  91.2549408  36.8109408  14.1630000  90.3669408  36.7379408  14.5100000
  91.5479408  37.6809408  14.4330000  91.2039408  48.3319408   8.1590000
  91.7869408  48.4599408   8.9080000  90.4139408  47.9419408   8.5330000
 100.8509408  48.0429408  20.5640000 101.5169408  47.8769408  19.8970000
 100.6929408  47.1879408  20.9640000 115.3289408  43.5029408  11.5810000
 115.0329408  44.2309408  12.1270000 116.1189408  43.1829408  12.0170000
 117.1119408  57.8559408  14.3000000 116.6299408  57.3489408  14.9530000
 118.0099408  57.8809408  14.6300000 114.7879408  32.1149408   5.8990000
 114.1839408  31.3719408   5.9120000 115.6579408  31.7159408   5.9040000
 109.4179408  45.1679408  16.0930000 110.2329408  44.6729408  16.0060000
 109.6999408  46.0539408  16.3210000 117.7659408  43.5989408   3.8470000
 117.7389408  43.8419408   4.7720000 117.9009408  44.4269408   3.3850000
  95.1689408  44.5189408  16.3780000  95.8409408  44.4369408  17.0540000
  94.4199408  44.9079408  16.8290000 112.8469408  44.3839408  29.2860000
 113.0729408  45.2939408  29.4810000 112.3399408  44.4319408  28.4760000
 114.5049408  33.7859408   8.3370000 114.6659408  33.1259408   7.6630000
 115.3689408  33.9629408   8.7110000 117.8919408  45.9599408   1.8140000
 117.0629408  45.4949408   1.6950000 118.2699408  46.0039408   0.9360000
 111.4209408  35.9589408  13.7260000 110.7449408  36.4539408  13.2630000
 112.0389408  35.6999408  13.0420000  94.4059408  40.8699408   1.0480000
  93.6999408  41.4429408   1.3470000  95.1239408  41.0339408   1.6600000
 107.9489408  47.1749408  11.2960000 107.9059408  46.2389408  11.0990000
 108.8179408  47.2979408  11.6800000 115.4809408  41.9639408   9.4060000
 115.1199408  42.5119408  10.1030000 116.2799408  41.5939408   9.7810000
 117.2379408  34.9699408   8.0610000 117.3909408  35.8909408   8.2740000
 117.5609408  34.8749408   7.1650000 114.1389408  38.9709408  24.3760000
 113.4629408  38.4299408  23.9690000 114.9209408  38.4189408  24.3760000
 106.7859408  48.4209408   1.6810000 106.7219408  47.5299408   1.3370000
 107.4129408  48.8559408   1.1040000 112.8489408  43.5719408  19.9600000
 113.5609408  43.2709408  19.3950000 112.1069408  43.0129408  19.7290000
 113.2589408  30.4689408  14.2250000 113.7039408  29.7619408  13.7580000
 113.9489408  31.1049408  14.4120000  98.5139408  48.9249408   4.6940000
  98.4449408  47.9949408   4.9100000  97.8739408  49.0569408   3.9950000
  90.9149408  42.1979408   3.5130000  90.7669408  42.8599408   2.8380000
  90.2449408  41.5339408   3.3490000 106.2619408  35.6629408  11.8050000
 107.1559408  35.3529408  11.9450000 105.7269408  34.8699408  11.8260000
 115.2609408  32.5219408  15.1500000 116.1599408  32.1979408  15.2140000
 115.1129408  32.6349408  14.2110000 116.0369408  39.7699408  12.4210000
 116.3529408  39.1019408  13.0300000 115.0999408  39.8379408  12.6050000
 113.0209408  38.4339408   3.5050000 113.2149408  39.3699408   3.4500000
 113.4379408  38.1499408   4.3190000 108.3969408  31.7669408   4.5070000
 108.1719408  31.0319408   5.0770000 109.3529408  31.8069408   4.5340000
 117.9889408  39.2129408  25.4190000 118.5799408  39.2639408  26.1700000
 117.4759408  40.0199408  25.4620000 119.4079408  50.4649408  12.4830000
 118.5159408  50.4729408  12.8300000 119.2959408  50.4509408  11.5330000
 109.9099408  38.3669408  10.0660000 109.9099408  39.2509408   9.6990000
 110.6139408  37.9149408   9.6030000 112.6919408  41.3699408  26.1520000
 112.7639408  40.5559408  25.6530000 113.5839408  41.5479408  26.4510000
 112.3429408  47.8229408  13.7280000 112.4789408  48.5569408  14.3260000
 111.4959408  47.9999408  13.3180000 108.5539408  48.9259408  24.6820000
 108.7939408  48.2999408  25.3660000 109.3529408  49.4279408  24.5250000
  90.9789408  41.7839408   6.4660000  90.8059408  41.5689408   5.5490000
  90.8379408  40.9619408   6.9360000 108.5449408  36.2349408   8.9460000
 108.6869408  36.3049408   8.0020000 108.8589408  37.0669408   9.2990000
 107.5829408  32.1169408  11.6990000 107.5359408  31.9249408  12.6360000
 107.4419408  31.2719408  11.2740000 113.0879408  36.0449408   2.2860000
 113.1179408  36.9629408   2.5550000 112.5769408  36.0479408   1.4770000
 109.4299408  59.0179408   0.8690000 110.3869408  59.0099408   0.8630000
 109.1899408  58.4979408   1.6360000 113.0929408  34.5809408  26.6170000
 113.7929408  34.1529408  26.1250000 112.4559408  34.8409408  25.9520000
 119.4029408  51.3029408  16.8030000 119.1189408  52.1149408  16.3830000
 120.2919408  51.4879408  17.1050000 119.9999408  33.3119408   8.7350000
 119.2879408  32.6869408   8.8720000 119.6239408  34.1599408   8.9690000
  97.9229408  30.9289408   7.0610000  98.3859408  31.4039408   7.7510000
  97.6119408  31.6119408   6.4670000 116.0629408  36.2019408   2.8730000
 116.7759408  36.4759408   2.2960000 115.4759408  35.7009408   2.3070000
 115.4119408  50.8149408   1.5320000 115.4999408  50.9999408   0.5970000
 116.2239408  50.3649408   1.7650000 118.3659408  35.4669408  19.3010000
 118.8039408  35.9929408  18.6320000 118.0599408  34.6899408  18.8330000
 103.7059408  30.8079408  28.7940000 102.8089408  30.6749408  29.0990000
 104.2449408  30.6919408  29.5770000 110.9419408  34.3839408  17.7550000
 110.5819408  33.9059408  17.0080000 111.5239408  35.0359408  17.3640000
 109.5519408  43.4549408  29.3200000 109.6209408  42.9329408  30.1200000
 109.9389408  42.9039408  28.6400000 119.4049408  39.7769408   1.2160000
 119.7829408  39.6169408   0.3520000 118.8879408  38.9919408   1.4010000
 113.8139408  46.7889408  29.7140000 113.7769408  47.3819408  30.4640000
 114.6549408  46.9789408  29.2980000  92.6029408  46.3849408  27.6050000
  92.3689408  46.0419408  26.7430000  93.5349408  46.1849408  27.6980000
 111.4199408  43.2069408  24.2540000 111.6209408  42.3409408  24.6100000
 111.2789408  43.0559408  23.3200000 114.3839408  46.4509408  26.5200000
 114.4989408  47.3369408  26.1780000 114.0379408  46.5779408  27.4040000
 119.1759408  40.3779408  22.4850000 118.2839408  40.5879408  22.2080000
 119.0939408  40.1619408  23.4140000 117.5159408  41.6489408  18.8270000
 117.5849408  40.6959408  18.7670000 117.6049408  41.8379408  19.7610000
 118.1189408  43.0759408  23.9840000 118.7619408  42.6759408  24.5710000
 117.4529408  43.4369408  24.5690000  90.9759408  43.9229408  26.7960000
  91.2779408  44.0099408  27.7000000  91.7439408  43.6149408  26.3150000
 114.1129408  31.7349408  28.1150000 114.7809408  31.4299408  27.5010000
 114.4059408  32.6089408  28.3730000 111.7639408  43.3609408   2.3840000
 111.7739408  43.7069408   1.4920000 110.9559408  42.8499408   2.4340000
  90.6829408  34.4809408  26.5800000  90.8219408  34.3349408  25.6450000
  90.8769408  35.4089408  26.7100000 118.0309408  55.7699408   0.2010000
 117.6519408  56.3839408  -0.4290000 118.7909408  56.2309408   0.5560000
  92.9169408  40.2559408  22.9200000  92.3259408  40.8239408  22.4250000
  93.4999408  40.8599408  23.3800000 111.1939408  34.9999408  24.4080000
 110.3499408  35.2639408  24.7730000 111.2559408  34.0639408  24.5980000
 116.5439408  35.5789408  25.9390000 115.8209408  34.9659408  25.8060000
 117.3229408  35.0939408  25.6660000 118.7599408  58.1839408   3.0480000
 118.8759408  57.2849408   3.3560000 119.4779408  58.3219408   2.4310000
  92.6489408  37.0719408  23.3300000  92.9159408  37.8839408  22.8980000
  92.1039408  36.6239408  22.6820000 112.4329408  54.4709408   0.8190000
 111.6569408  54.3989408   1.3750000 112.5059408  53.6149408   0.3970000
 117.0089408  37.7539408  20.9100000 117.1639408  37.5669408  21.8360000
 116.1749408  37.3249408  20.7160000  93.2349408  48.6979408  24.7910000
  92.6099408  47.9739408  24.8150000  94.0829408  48.2909408  24.9680000
  95.1829408  45.2449408  28.7310000  95.2499408  44.6459408  27.9880000
  96.0909408  45.4169408  28.9820000 109.5569408  49.2589408   4.7920000
 109.8279408  48.5009408   4.2750000 109.5719408  49.9889408   4.1730000
 116.9399408  40.5709408   5.5480000 117.2969408  41.4359408   5.7460000
 117.5429408  40.2049408   4.9000000 112.1869408  37.3489408  23.2340000
 112.6329408  37.2299408  22.3960000 111.9849408  36.4599408  23.5270000
 113.0549408  56.8219408  15.9560000 112.1179408  56.8199408  16.1500000
 113.1779408  56.0819408  15.3610000 116.0829408  44.9759408  22.9120000
 116.8299408  44.5689408  22.4730000 116.1679408  44.7089408  23.8270000
  91.7139408  34.7479408   4.2270000  91.3929408  34.3309408   3.4270000
  91.0859408  34.4889408   4.9010000 116.7119408  58.8939408   1.2240000
 117.5319408  58.5429408   1.5710000 116.3319408  59.3829408   1.9540000
 114.2559408  53.5429408  18.3680000 114.2759408  52.7569408  18.9150000
 115.1489408  53.6239408  18.0320000 117.4089408  58.0439408  28.3580000
 116.8659408  58.5749408  28.9420000 118.0689408  58.6529408  28.0260000
  96.1619408  51.5309408  25.3790000  96.6229408  52.3089408  25.0660000
  96.8009408  50.8229408  25.2930000 114.1759408  48.5089408   1.7660000
 114.5339408  49.3739408   1.5650000 114.8279408  48.1069408   2.3410000
 115.2449408  45.1359408  19.2390000 114.6809408  45.3399408  19.9860000
 115.0279408  45.8009408  18.5860000 117.8889408  32.9389408   0.7890000
 117.1389408  32.3659408   0.9500000 117.5709408  33.8159408   1.0000000
 107.5889408  35.9449408  21.8650000 107.9269408  35.0509408  21.9150000
 108.2399408  36.4199408  21.3480000 108.6329408  33.7929408  27.6990000
 109.4459408  33.2949408  27.6140000 108.5859408  34.0199408  28.6280000
 119.2179408  41.7099408  26.2810000 119.3859408  41.1539408  27.0420000
 119.5759408  42.5639408  26.5240000 110.0679408  36.6019408  20.6770000
 110.4109408  35.7399408  20.4420000 110.8469408  37.1369408  20.8290000
 119.4139408  33.1659408  16.0720000 119.2369408  32.3849408  16.5970000
 118.9069408  33.8589408  16.4960000 116.1419408  42.3979408  27.6270000
 115.4329408  42.2329408  28.2480000 116.9029408  42.5879408  28.1750000
 107.8799408  37.6249408  24.1220000 107.7579408  36.6759408  24.0920000
 107.0159408  37.9709408  24.3480000 111.5639408  45.6829408  25.4200000
 112.2419408  45.5029408  26.0710000 111.3869408  44.8329408  25.0160000
 119.8499408  32.5939408  28.7080000 119.3119408  32.9239408  29.4270000
 119.7199408  33.2259408  28.0010000 114.0009408  34.7069408   5.0710000
 113.8849408  34.5229408   4.1390000 114.2479408  33.8649408   5.4530000
 118.6979408  34.9809408  23.9730000 119.2289408  35.6649408  24.3820000
 119.2709408  34.2149408  23.9480000  92.5169408  33.7909408  28.9940000
  92.3399408  34.7299408  29.0370000  92.0049408  33.4829408  28.2460000
  99.8899408  41.8059408  17.1790000 100.2009408  41.2239408  17.8720000
 100.1229408  41.3559408  16.3660000  92.2539408  45.9619408  24.7120000
  91.4929408  45.4689408  24.4070000  93.0069408  45.4519408  24.4130000
 110.1359408  46.2199408  28.9780000 109.9219408  45.3049408  28.7990000
 110.5769408  46.2019408  29.8280000 110.0029408  39.2039408  23.4090000
 110.8009408  38.6759408  23.4560000 109.3039408  38.6049408  23.6730000
 113.6059408  42.7209408  14.1930000 113.3069408  42.6279408  13.2890000
 113.8659408  43.6389408  14.2670000 111.9269408  48.4589408  27.4240000
 111.6859408  49.2179408  27.9550000 111.2059408  47.8409408  27.5460000
 110.6599408  50.6539408  28.5530000 110.8069408  50.9329408  29.4560000
 110.5649408  51.4699408  28.0610000 113.0969408  37.0939408  20.7320000
 113.5719408  37.7899408  20.2780000 113.5829408  36.2959408  20.5220000
  90.1209408  37.1739408  25.0360000  91.0009408  37.3079408  24.6820000
  89.6779408  38.0119408  24.9010000 111.2829408  34.2129408  10.2370000
 112.1709408  34.4309408  10.5200000 110.9569408  35.0169408   9.8310000
  95.2779408  41.5559408   7.5480000  94.8449408  40.9229408   8.1220000
  95.5749408  42.2489408   8.1370000  96.0519408  36.0389408  12.9900000
  96.7619408  35.9259408  12.3580000  95.9799408  36.9859408  13.1040000
 115.8779408  44.2189408  25.3820000 115.9199408  43.5969408  26.1090000
 115.3539408  44.9449408  25.7190000 116.9689408  56.1229408  22.1750000
 117.8909408  56.2139408  22.4190000 116.8059408  56.8519408  21.5770000
  90.5089408  39.7659408  13.8980000  89.8269408  39.7809408  14.5700000
  90.2249408  39.0889408  13.2830000 112.0069408  43.9469408  16.1180000
 112.6479408  43.3789408  15.6900000 112.4899408  44.3509408  16.8390000
 111.3509408  53.5839408  27.1550000 112.0519408  54.1379408  26.8110000
 110.8199408  54.1729408  27.6900000  93.1369408  45.9089408  17.4420000
  93.2879408  46.7359408  17.8990000  92.3239408  46.0479408  16.9560000
 114.1139408  33.7159408  21.1230000 114.5879408  34.4759408  20.7840000
 114.5419408  33.5189408  21.9560000  89.8739408  39.2279408  27.4500000
  90.4399408  39.4969408  26.7260000  90.4529408  38.7489408  28.0430000
 103.7419408  36.4529408  15.6390000 104.2449408  36.8479408  14.9270000
 103.4279408  37.1979408  16.1520000 118.1879408  42.5169408  29.3490000
 119.0379408  42.9559408  29.3450000 118.2049408  41.9679408  30.1330000
  93.9139408  44.3159408  20.0960000  93.3239408  45.0459408  20.2810000
  93.8699408  44.2069408  19.1460000 109.3529408  39.0949408  19.9650000
 108.9699408  39.8979408  20.3180000 109.1119408  38.4159408  20.5960000
 107.2159408  32.2419408  14.2630000 107.4569408  31.6839408  15.0030000
 106.9959408  33.0849408  14.6600000  95.4609408  44.3169408  26.1370000
  94.8509408  43.6819408  25.7600000  96.2679408  43.8219408  26.2740000
  90.6509408  44.1239408  23.5250000  89.7119408  43.9479408  23.5810000
  90.9809408  43.4709408  22.9080000  92.0539408  42.5049408  21.6720000
  92.7779408  43.0489408  21.3630000  91.3189408  42.7389408  21.1060000
 117.4739408  38.2959408   7.3770000 117.0789408  39.0559408   6.9490000
 117.4529408  37.6089408   6.7110000  94.6389408  38.2059408   0.3610000
  94.5499408  39.1419408   0.5400000  95.5799408  38.0399408   0.4160000
  93.5789408  35.2939408  14.7230000  94.2869408  35.7469408  14.2640000
  92.8469408  35.9109408  14.7040000 104.3679408  38.5949408  20.4910000
 104.4269408  39.5469408  20.5680000 104.3979408  38.4279408  19.5490000
  92.4339408  59.4479408  21.3220000  91.7669408  58.7629408  21.3040000
  92.1439408  60.0829408  20.6670000 109.6399408  47.0629408  21.6660000
 110.2749408  47.2579408  22.3550000 109.4069408  47.9179408  21.3040000
 117.1349408  42.3819408  21.4320000 116.3539408  41.8949408  21.6950000
 117.7049408  42.3559408  22.2000000  93.7859408  33.1389408   5.5410000
  94.7399408  33.2159408   5.5740000  93.5029408  33.8839408   5.0110000
 112.3099408  40.3559408  21.7640000 111.7209408  41.1059408  21.6740000
 111.7629408  39.6659408  22.1410000 118.6129408  50.5529408  20.3810000
 119.2029408  50.8629408  21.0670000 118.5069408  51.3039408  19.7970000
 108.5159408  55.7009408   0.7170000 108.6129408  56.6029408   1.0230000
 109.1969408  55.5999408   0.0510000 114.3199408  45.3179408  13.4330000
 113.7379408  46.0469408  13.2200000 114.8819408  45.6559408  14.1310000
 112.5469408  45.5769408   4.2880000 111.8889408  46.0879408   3.8160000
 112.4899408  44.7009408   3.9070000 109.5539408  30.0589408  17.2370000
 109.8519408  30.3489408  16.3750000 108.6799408  30.4369408  17.3290000
 114.5779408  56.1839408  19.7680000 115.3119408  55.7339408  19.3490000
 113.8019408  55.8429408  19.3220000 111.9709408  59.7309408   4.2900000
 111.4919408  60.5529408   4.3860000 112.2929408  59.5359408   5.1700000
 109.7779408  53.9979408  13.5600000 110.2779408  54.1409408  12.7560000
 110.3799408  53.5269408  14.1360000 106.2369408  32.5929408   7.0360000
 106.4979408  31.7169408   6.7530000 107.0569408  33.0199408   7.2820000
 107.8549408  33.6489408   8.8230000 108.0219408  34.5789408   8.9790000
 107.6949408  33.2839408   9.6930000 110.3289408  54.1079408   2.8240000
 109.6049408  54.5969408   2.4350000 110.2499408  54.2699408   3.7640000
 111.6989408  30.0119408  19.4060000 112.3109408  29.7979408  18.7010000
 110.9559408  30.4209408  18.9620000 117.1489408  51.4149408   8.1260000
 117.0169408  51.9989408   8.8730000 116.3659408  50.8649408   8.1090000
 111.1139408  32.1109408   4.7390000 111.1109408  32.6599408   5.5240000
 111.5609408  32.6399408   4.0780000 112.0079408  40.1399408  16.2200000
 111.9829408  40.3189408  15.2790000 112.8879408  39.7949408  16.3750000
 106.6089408  48.0909408  13.3550000 106.7289408  47.5009408  12.6110000
 107.4469408  48.5439408  13.4390000 117.8639408  47.4319408   9.3610000
 117.7469408  47.2979408  10.3010000 118.3079408  48.2779408   9.2930000
  91.0329408  55.6039408  13.9710000  90.2089408  55.2399408  14.2930000
  91.2309408  55.0919408  13.1870000  91.9339408  59.6879408  18.6420000
  92.2469408  58.7839408  18.6550000  91.5109408  59.7829408  17.7880000
  91.1559408  48.4609408  20.0400000  90.2709408  48.7809408  19.8660000
  91.0349408  47.5459408  20.2950000  92.0799408  58.3339408   3.5080000
  91.6479408  58.7749408   2.7770000  92.4669408  59.0439408   4.0210000
 107.4589408  49.6149408   6.9330000 106.5709408  49.2699408   7.0270000
 107.7209408  49.3639408   6.0470000 115.5019408  55.3549408  28.7860000
 116.3499408  54.9159408  28.7100000 115.0439408  55.1329408  27.9750000
 116.6749408  47.5639408  13.5590000 116.2789408  47.7839408  14.4030000
 116.8119408  46.6169408  13.5990000 113.0439408  51.6259408  13.4910000
 112.5689408  51.6099408  12.6600000 113.9519408  51.4399408  13.2520000
 111.5259408  57.0239408   3.9340000 111.8329408  56.7029408   3.0860000
 111.8009408  57.9409408   3.9570000 112.5659408  53.1829408   6.2490000
 112.5139408  52.3989408   6.7960000 113.4839408  53.2299408   5.9820000
  92.7359408  53.2419408  21.7040000  92.8889408  53.6109408  20.8350000
  92.5469408  53.9999408  22.2570000 115.2289408  33.2469408  12.4100000
 114.8559408  32.6399408  11.7710000 116.0849408  33.4789408  12.0500000
  93.0529408  56.7679408  15.5720000  92.4119408  56.2939408  15.0430000
  93.1159408  57.6289408  15.1590000 114.1119408  51.8259408   3.7350000
 114.7569408  52.4489408   4.0690000 114.4369408  51.5849408   2.8680000
 115.3229408  46.5199408   3.7300000 115.4299408  45.8639408   3.0410000
 114.4889408  46.2979408   4.1450000  91.2079408  54.3789408  28.9760000
  90.7519408  53.5889408  29.2650000  92.1189408  54.1049408  28.8680000
 115.6729408  50.8899408  23.2500000 115.9379408  51.6929408  22.8020000
 115.0279408  50.4909408  22.6670000 118.0719408  45.0429408  14.1250000
 118.3279408  44.1539408  13.8810000 118.7059408  45.6059408  13.6790000
 111.4969408  47.6769408   8.9910000 110.6869408  47.9649408   9.4120000
 111.2069408  47.1699408   8.2330000 111.3089408  51.2979408  10.9070000
 110.3719408  51.3809408  11.0840000 111.3559408  50.9219408  10.0280000
 109.9409408  55.9629408  28.3800000 109.0549408  56.3189408  28.3170000
 110.3819408  56.2749408  27.5900000 112.7679408  49.3119408  17.3790000
 112.3009408  50.0629408  17.0110000 113.4259408  49.6989408  17.9570000
 109.7129408  51.5399408   7.5910000 109.1179408  50.8719408   7.2500000
 110.5109408  51.0599408   7.8100000 113.7039408  47.7479408  10.5130000
 114.1529408  46.9339408  10.2860000 112.9529408  47.7799408   9.9200000
 117.4709408  55.8359408   6.5070000 117.7579408  54.9329408   6.6370000
 117.3959408  55.9299408   5.5570000 117.1539408  55.2229408  18.8610000
 117.2309408  54.5909408  18.1470000 117.9429408  55.7599408  18.7930000
 118.9979408  45.2499408  17.3840000 118.6679408  45.0439408  18.2580000
 118.5579408  44.6249408  16.8080000 107.0249408  52.7099408  17.6690000
 106.8809408  52.0149408  17.0260000 106.7759408  53.5139408  17.2140000
 115.5159408  32.1409408   2.2740000 114.6969408  32.6339408   2.2290000
 115.2789408  31.3189408   2.7030000 117.8379408  46.4779408   4.9610000
 117.1649408  46.4449408   4.2810000 118.2269408  47.3489408   4.8720000
 108.1619408  41.4479408  18.1310000 108.1129408  41.6889408  19.0560000
 109.0279408  41.7449408  17.8520000 101.7949408  34.1809408  15.4660000
 101.0579408  34.3869408  16.0420000 102.4969408  34.7619408  15.7580000
 114.6279408  59.7129408   3.2650000 113.6809408  59.5999408   3.3410000
 114.9819408  59.3039408   4.0550000 114.1549408  58.4689408   8.6710000
 114.9869408  57.9959408   8.6860000 113.5239408  57.8559408   9.0480000
 117.6299408  58.3429408   7.5860000 117.5669408  57.3909408   7.5050000
 117.5549408  58.5079408   8.5260000 116.7179408  53.2369408  17.1170000
 117.0469408  53.5299408  16.2670000 116.4409408  52.3329408  16.9690000
 118.6429408  53.4169408   2.1320000 119.5469408  53.7219408   2.2000000
 118.2299408  54.0239408   1.5180000 108.1019408  59.3339408  13.8490000
 108.8249408  59.9569408  13.9170000 108.5209408  58.5029408  13.6270000
  90.8829408  45.8929408  20.9960000  91.0199408  45.6469408  21.9110000
  90.0429408  45.4959408  20.7640000 119.7119408  57.0349408  18.1520000
 119.5509408  57.4989408  17.3300000 119.2639408  57.5589408  18.8150000
  97.1339408  53.6299408  17.5170000  96.9599408  54.4419408  17.0430000
  97.4829408  53.0339408  16.8540000  94.8129408  50.6049408  20.3340000
  94.8989408  51.5329408  20.5520000  94.8869408  50.1529408  21.1740000
 115.3029408  56.0099408  11.7730000 115.0519408  55.5969408  10.9470000
 114.6769408  56.7259408  11.8830000 105.4609408  53.4619408   3.0360000
 105.9439408  53.2799408   2.2300000 105.3659408  52.6069408   3.4560000
 103.5109408  57.9189408  15.3630000 104.4469408  57.8499408  15.5500000
 103.2639408  57.0499408  15.0470000 115.1669408  55.1589408   1.8110000
 114.2559408  54.8679408   1.8270000 115.3879408  55.2049408   0.8810000
 111.1539408  57.1659408   6.5480000 111.4189408  56.9389408   5.6570000
 111.5359408  58.0299408   6.7000000 107.0539408  56.8609408  28.2050000
 106.3929408  57.1089408  28.8510000 106.5519408  56.4939408  27.4770000
 106.0469408  34.5639408  15.7710000 106.0809408  34.5099408  16.7260000
 105.4529408  35.2939408  15.5940000  92.8799408  57.4629408  12.2670000
  92.0239408  57.0379408  12.2150000  93.2679408  57.3299408  11.4030000
 118.6919408  49.2009408   3.8620000 119.5599408  48.8229408   3.7170000
 118.1619408  48.8679408   3.1380000 117.3199408  48.8899408   1.5420000
 117.8129408  49.1749408   0.7720000 117.3469408  47.9339408   1.5040000
  90.1709408  55.8719408   3.6420000  90.6029408  55.3299408   2.9810000
  90.8439408  56.4929408   3.9200000 111.9069408  50.2649408   8.2860000
 111.7919408  49.3209408   8.3890000 112.4119408  50.3589408   7.4790000
 110.8209408  55.7819408  11.5460000 110.6039408  55.9449408  10.6280000
 110.7959408  56.6459408  11.9560000 117.3569408  31.1799408   6.2670000
 117.6309408  31.6629408   5.4870000 118.0139408  30.4909408   6.3660000
 108.4929408  50.8929408  11.3400000 108.2899408  50.2629408  10.6490000
 107.8709408  51.6069408  11.2050000 117.5929408  58.9229408  10.4380000
 117.4519408  59.3709408  11.2720000 118.5019408  58.6269408  10.4740000
  99.8979408  58.3239408  17.5680000 100.5479408  57.6229408  17.5210000
  99.0609408  57.8869408  17.4100000  90.6229408  55.0849408  19.8260000
  91.5509408  54.8679408  19.9130000  90.5909408  55.7159408  19.1080000
 119.5049408  39.6089408   3.9390000 119.2369408  39.4409408   3.0360000
 120.3389408  39.1489408   4.0320000 114.9399408  58.5519408  12.8940000
 115.6679408  58.0659408  13.2810000 115.3499408  59.3119408  12.4820000
 116.2609408  50.5759408  16.5330000 115.9599408  49.7359408  16.1870000
 117.1519408  50.4039408  16.8380000  90.9209408  59.9589408   9.9480000
  91.4189408  59.3979408   9.3520000  90.0779408  60.0829408   9.5120000
  90.1289408  30.2789408   6.1440000  90.1339408  30.2069408   5.1890000
  90.6739408  29.5509408   6.4420000 110.1059408  56.3139408   8.9570000
 110.3829408  56.3689408   8.0430000 109.8789408  57.2129408   9.1940000
 113.6379408  59.1839408  27.3740000 113.8629408  58.6559408  28.1400000
 113.7149408  60.0889408  27.6760000 107.8029408  31.4979408   2.0150000
 107.8179408  31.3079408   2.9530000 107.9959408  30.6579408   1.5970000
 111.2849408  51.4409408   3.2030000 112.1909408  51.6019408   3.4660000
 110.9289408  52.3109408   3.0260000 114.8339408  48.1349408  15.5300000
 115.1179408  47.2749408  15.8380000 114.2629408  48.4619408  16.2250000
 115.9399408  53.0769408  10.1740000 115.0409408  52.8989408  10.4490000
 115.8779408  53.8789408   9.6550000  97.8459408  34.6539408  28.8310000
  98.2209408  34.7389408  29.7070000  97.3629408  33.8279408  28.8550000
  90.5509408  53.0329408   8.3860000  90.1859408  53.4379408   7.6000000
  89.8569408  53.1109408   9.0410000 111.0919408  32.8469408  27.7180000
 111.6289408  32.2659408  28.2570000 111.7059408  33.5029408  27.3870000
 109.0939408  55.2559408  17.6310000 108.8449408  55.5209408  18.5160000
 108.5189408  54.5169408  17.4310000 114.6889408  56.4959408  23.9890000
 115.4609408  56.4079408  23.4300000 114.0209408  55.9579408  23.5630000
 109.7889408  57.3129408  23.2930000 110.5389408  57.1429408  22.7230000
 109.6029408  58.2449408  23.1720000 116.0789408  58.6559408   5.3270000
 116.5179408  58.9459408   6.1270000 116.5309408  57.8469408   5.0860000
 111.9989408  57.5469408   1.0180000 112.9239408  57.6119408   0.7810000
 111.7279408  56.6889408   0.6910000 107.6129408  50.7449408   3.2240000
 107.4149408  49.8939408   2.8320000 107.7729408  51.3209408   2.4770000
 118.7029408  53.2359408  20.3090000 119.5569408  53.6369408  20.1500000
 118.0819408  53.8059408  19.8540000 109.1839408  52.3919408  19.3730000
 108.8759408  52.0519408  20.2130000 108.3959408  52.4469408  18.8330000
 118.9259408  49.3549408  29.1130000 118.4939408  49.0299408  28.3230000
 119.7449408  48.8629408  29.1590000 112.4529408  52.8319408  24.3870000
 113.2899408  53.2969408  24.4070000 111.9209408  53.3219408  23.7600000
 119.3329408  50.1069408   9.6110000 120.1389408  50.5079408   9.2850000
 118.7129408  50.1949408   8.8870000 119.7389408  31.2499408  22.7270000
 119.9719408  30.5979408  22.0660000 118.7969408  31.1349408  22.8560000
 104.6139408  54.3099408  28.8680000 103.7559408  54.7329408  28.8890000
 105.0889408  54.7639408  28.1720000  91.4839408  50.5129408  26.1210000
  91.9909408  49.8839408  25.6070000  90.8779408  50.9039408  25.4910000
 116.4009408  40.1289408  29.6700000 116.3809408  40.6799408  30.4520000
 116.2529408  40.7369408  28.9450000 119.0999408  56.4319408  25.9860000
 118.5239408  56.4859408  26.7480000 118.5919408  55.9469408  25.3350000
 117.4289408  54.6289408  24.5640000 116.6139408  54.5409408  24.0710000
 117.3679408  53.9629408  25.2490000 116.4519408  48.2429408  23.9800000
 116.5979408  49.0739408  23.5290000 115.5169408  48.0689408  23.8690000
 116.6279408  35.1689408  30.1560000 115.8039408  34.7719408  29.8740000
 116.6229408  36.0389408  29.7570000  92.8429408  55.7119408  23.1490000
  93.7689408  55.4969408  23.0340000  92.8479408  56.5679408  23.5780000
 113.8769408  51.7659408  27.1800000 114.5629408  52.2469408  26.7180000
 113.0929408  52.3049408  27.0720000 118.0669408  45.0089408  20.1910000
 118.0739408  45.9439408  19.9830000 117.1889408  44.8459408  20.5340000
 116.0639408  47.5379408  28.8710000 116.7539408  46.9079408  28.6660000
 116.4249408  48.3839408  28.6060000 119.9059408  58.0329408  21.8660000
 119.3759408  58.3819408  22.5830000 120.0419408  57.1129408  22.0930000
 117.5559408  53.3009408  28.4550000 118.1949408  53.8009408  28.9620000
 118.0589408  52.9369408  27.7270000 117.8099408  47.9179408  26.6380000
 117.3599408  48.3039408  25.8870000 117.8709408  46.9859408  26.4280000
 110.8229408  50.4389408  24.5460000 111.4419408  51.1659408  24.6110000
 110.8099408  50.2179408  23.6140000 116.1169408  30.6769408  26.5390000
 115.8869408  30.0879408  25.8210000 116.9099408  30.2969408  26.9170000
 114.0979408  42.2559408  29.3850000 113.7049408  43.1289408  29.3770000
 113.3609408  41.6629408  29.5350000  93.7959408  32.6399408   1.5360000
  93.1589408  33.0979408   0.9870000  93.2689408  32.0539408   2.0780000
 119.0779408  52.0099408  26.4940000 119.7929408  51.5059408  26.8830000
 119.4689408  52.4279408  25.7270000 116.4579408  52.1029408  25.8250000
 117.2999408  51.6859408  26.0080000 116.1359408  51.6579408  25.0400000
 114.2699408  59.2149408  24.6630000 114.2869408  58.9489408  25.5820000
 114.4699408  58.4149408  24.1780000 109.3969408  52.8279408  25.2380000
 109.5079408  52.1059408  24.6190000 110.1119408  52.7199408  25.8640000
 110.7379408  33.9019408  20.2470000 110.8629408  33.9519408  19.3000000
 111.6089408  34.0529408  20.6130000 119.0199408  58.8129408  24.3330000
 119.8619408  59.1639408  24.6250000 118.8459408  58.0819408  24.9260000
 106.8359408  31.2099408  27.0900000 107.4759408  30.5949408  27.4500000
 107.1229408  32.0669408  27.4050000 116.1579408  56.4039408   3.9090000
 115.6669408  57.2129408   4.0520000 115.8099408  56.0549408   3.0890000
 107.0399408  58.4119408  24.8180000 107.5809408  58.5059408  25.6020000
 107.1749408  57.5059408  24.5410000 113.6199408  54.9529408  22.0760000
 112.8519408  54.5989408  21.6270000 114.1499408  55.3379408  21.3780000
 111.2529408  53.5169408  20.7880000 110.5179408  53.0819408  20.3570000
 110.8559408  53.9929408  21.5170000  93.1729408  59.6979408  23.8650000
  92.8949408  59.4999408  22.9710000  93.6089408  60.5479408  23.7990000
 114.4219408  39.4159408  20.1160000 115.2529408  39.6309408  20.5400000
 113.7539408  39.7569408  20.7110000  92.7039408  51.1609408   0.5350000
  91.8629408  51.6189408   0.5440000  92.8899408  51.0209408  -0.3940000
 108.5739408  56.5729408  19.9790000 109.3969408  57.0059408  20.2050000
 107.9349408  56.9379408  20.5900000 113.9579408  31.6669408  23.3620000
 113.0839408  31.9459408  23.6370000 114.0009408  30.7409408  23.6010000
 118.8059408  46.1259408  29.0390000 119.4149408  46.8549408  28.9240000
 119.3669408  45.3549408  29.1220000 113.5929408  50.4459408   6.1030000
 114.4549408  50.0469408   6.2220000 113.6239408  50.8299408   5.2270000
 111.0189408  51.9559408  17.3460000 110.6409408  52.0609408  18.2200000
 111.4569408  52.7889408  17.1720000 119.3579408  36.4659408  21.7420000
 118.9689408  36.1709408  20.9190000 119.0259408  35.8529408  22.3980000
  95.0389408  50.2599408  23.3180000  95.4329408  50.8059408  23.9980000
  94.2329408  49.9279408  23.7140000 114.5659408  57.9129408  29.5880000
 114.9279408  57.0679408  29.3220000 115.1819408  58.2429408  30.2420000
 112.3159408  30.6029408   0.0200000 112.8489408  30.3259408   0.7650000
 112.9519408  30.8169408  -0.6630000  92.0639408  32.4419408  19.6400000
  92.0359408  33.1009408  18.9460000  91.3919408  31.8059408  19.3950000
 106.0279408  59.2599408  18.5900000 105.0909408  59.1729408  18.4130000
 106.1359408  58.9249408  19.4800000 110.3859408  54.2079408  23.2040000
 110.0829408  55.1069408  23.3300000 109.8389408  53.6859408  23.7910000
  90.8689408  36.2169408   0.9050000  91.1979408  36.6709408   0.1290000
  91.6129408  36.1979408   1.5060000  94.5629408  55.8619408  25.9740000
  93.6279408  56.0279408  26.0910000  94.7009408  54.9909408  26.3480000
 100.0009408  56.2329408  21.9690000 100.8279408  55.7619408  22.0740000
 100.2609408  57.1449408  21.8330000 103.1139408  59.2469408  18.1040000
 103.4209408  58.6579408  17.4150000 102.3449408  59.6749408  17.7280000
  94.1209408  43.6749408  43.7610000  94.0209408  44.4239408  44.3480000
  94.6659408  43.0579408  44.2490000 109.4019408  47.0039408  33.4620000
 109.3069408  46.1259408  33.8320000 108.6369408  47.1089408  32.8970000
 111.2879408  35.2629408  59.9310000 110.5409408  34.9539408  60.4440000
 110.9199408  35.9259408  59.3470000  96.9639408  57.2739408  34.1330000
  96.2589408  56.7169408  34.4630000  96.9889408  58.0129408  34.7410000
 111.1249408  31.1489408  51.7350000 110.9649408  30.2999408  51.3230000
 111.6349408  31.6379408  51.0890000  96.7109408  48.7099408  51.4700000
  96.3839408  49.3649408  52.0880000  97.6529408  48.8729408  51.4250000
 101.8849408  41.9679408  42.0810000 101.2899408  41.2449408  42.2800000
 102.7569408  41.5759408  42.1090000  95.8789408  36.9689408  38.7010000
  95.4139408  36.1719408  38.4480000  95.9029408  37.4959408  37.9020000
 105.1049408  47.8279408  45.6050000 104.2939408  47.6459408  45.1300000
 105.7899408  47.7719408  44.9380000  90.6359408  44.0729408  38.5360000
  89.8129408  44.3929408  38.1640000  90.9089408  43.3719408  37.9450000
 108.8559408  48.6129408  39.2840000 108.4689408  48.1719408  40.0410000
 108.1489408  49.1559408  38.9360000  99.0639408  38.6819408  47.8260000
  98.4579408  38.2489408  48.4280000  99.3939408  37.9759408  47.2700000
 101.2259408  41.3479408  35.7040000 100.6419408  41.7979408  36.3140000
 101.6789408  40.6969408  36.2400000 107.4669408  45.2269408  47.9080000
 107.9479408  45.1439408  48.7320000 108.1319408  45.1079408  47.2300000
 112.0799408  39.5039408  36.3360000 111.9909408  39.7379408  35.4120000
 112.7389408  40.1109408  36.6740000  95.6149408  43.6859408  38.9500000
  95.7649408  43.7169408  39.8950000  94.7539408  44.0859408  38.8300000
 119.3079408  48.9599408  45.2020000 119.6479408  49.5329408  45.8900000
 119.8979408  49.0979408  44.4610000  92.5329408  37.1629408  58.8470000
  93.2739408  37.5749408  59.2930000  92.8629408  36.9599408  57.9720000
 102.9309408  55.5519408  44.1980000 103.8639408  55.3599408  44.1090000
 102.5239408  55.1209408  43.4470000 118.0369408  35.5629408  35.5490000
 117.0969408  35.6829408  35.4130000 118.2159408  34.6789408  35.2300000
 108.3629408  51.3589408  30.6810000 107.7089408  52.0489408  30.5670000
 108.2789408  50.8169408  29.8970000 100.6849408  45.9839408  36.6650000
 101.1339408  46.8249408  36.7490000  99.8769408  46.0929408  37.1670000
 108.4319408  34.8569408  55.0460000 108.1149408  34.5139408  55.8810000
 108.3719408  34.1159408  54.4430000 118.7999408  39.9389408  45.7730000
 117.8609408  39.9999408  45.5990000 118.8569408  39.5959408  46.6650000
  92.3889408  50.7699408  33.8460000  93.1819408  51.3059408  33.8470000
  92.6729408  49.9199408  34.1820000 107.9779408  44.4559408  40.6650000
 107.2519408  44.3639408  40.0480000 107.7039408  43.9559408  41.4340000
  99.6549408  54.0029408  60.1860000  99.0479408  54.5939408  59.7410000
 100.5229408  54.3469408  59.9750000 103.5299408  44.6779408  30.5350000
 102.9009408  43.9769408  30.7060000 103.0779408  45.2629408  29.9270000
 106.9329408  52.0279408  43.3670000 107.2779408  52.9039408  43.1980000
 107.6629408  51.4399408  43.1730000  94.4319408  58.7859408  56.2340000
  94.8979408  58.1089408  55.7430000  93.7839408  59.1269408  55.6170000
 101.7599408  53.1179408  38.5430000 101.6899408  53.8819408  37.9720000
 102.0759408  52.4179408  37.9710000 104.5309408  56.0489408  31.8910000
 105.1549408  56.0429408  31.1650000 104.9719408  55.5639408  32.5890000
  91.5889408  37.8679408  35.1380000  91.9129408  37.0799408  34.7030000
  92.3749408  38.2939408  35.4810000  94.3779408  31.6949408  46.6380000
  93.4469408  31.8319408  46.4640000  94.7679408  31.5709408  45.7730000
 106.9779408  44.3809408  58.3850000 107.8199408  43.9829408  58.6060000
 107.1409408  44.8459408  57.5640000 101.0189408  32.1809408  48.1460000
 100.7569408  33.1019408  48.1390000 101.6919408  32.1279408  48.8240000
 105.1549408  30.6799408  38.8720000 104.7649408  31.4279408  38.4200000
 105.0899408  29.9599408  38.2450000 105.4189408  44.0349408  43.0950000
 104.8099408  43.9809408  43.8320000 104.8679408  44.2559408  42.3440000
  96.8749408  56.9259408  39.7580000  97.0919408  57.8089408  40.0560000
  97.0169408  56.9499408  38.8120000 102.2769408  39.0759408  56.9600000
 101.8759408  39.8269408  56.5240000 102.9859408  39.4519408  57.4820000
 118.5349408  45.5709408  37.6430000 118.4489408  46.1489408  36.8850000
 118.1879408  46.0809408  38.3750000  98.3539408  36.3839408  33.5020000
  99.0179408  36.9059408  33.0520000  97.9879408  36.9769408  34.1590000
 114.3849408  39.4109408  47.3650000 114.7209408  38.5179408  47.2950000
 114.2909408  39.5589408  48.3060000  97.7939408  43.7699408  37.0920000
  97.1589408  43.5089408  37.7590000  98.3649408  43.0079408  36.9930000
  99.0859408  32.8069408  42.3010000  99.2659408  33.2629408  41.4790000
  99.7729408  33.1059408  42.8980000 105.8509408  43.9929408  39.0110000
 105.1649408  44.5659408  38.6690000 105.4019408  43.1709408  39.2080000
  97.6489408  47.3009408  42.5020000  97.1329408  47.8939408  43.0490000
  97.6139408  46.4609408  42.9600000 112.4549408  33.6049408  32.6640000
 111.6819408  33.5749408  32.1000000 112.7979408  34.4919408  32.5530000
 111.2289408  50.5009408  44.9470000 110.8759408  51.0379408  45.6570000
 111.9479408  51.0209408  44.5870000  97.2079408  38.2029408  59.8520000
  97.3599408  38.7419408  60.6280000  98.0649408  38.1409408  59.4310000
 100.4099408  55.8839408  56.7950000 100.4019408  56.2829408  55.9250000
  99.6159408  56.2129408  57.2170000 101.1919408  56.2969408  31.5580000
 101.2509408  57.2469408  31.6600000 101.6389408  55.9449408  32.3270000
  94.6869408  33.6109408  42.3470000  93.8339408  33.9499408  42.0730000
  95.2309408  34.3909408  42.4540000 103.1469408  42.3189408  57.0580000
 103.5739408  42.0469408  56.2450000 103.8619408  42.4039408  57.6880000
 101.3659408  50.8169408  42.9800000 101.3449408  51.5859408  42.4090000
 102.2869408  50.5579408  42.9990000 105.5709408  34.5019408  53.2080000
 106.1229408  35.1429408  52.7600000 105.2669408  33.9189408  52.5130000
 104.5329408  49.5259408  37.8070000 104.0209408  48.9609408  38.3850000
 103.9069408  50.1799408  37.4950000  94.9169408  44.0799408  36.0540000
  95.2429408  43.2809408  36.4690000  94.3959408  44.5079408  36.7330000
 101.9419408  34.9309408  48.4310000 102.8109408  35.3169408  48.3240000
 101.7659408  34.9919408  49.3700000  92.9999408  53.7209408  34.9930000
  92.5599408  53.1309408  35.6050000  93.7909408  53.2499408  34.7310000
  99.3909408  35.9979408  43.5600000  98.4679408  35.8209408  43.7410000
  99.5449408  35.6099408  42.6990000  96.4589408  49.0469408  44.2110000
  95.7969408  48.9559408  44.8960000  97.0899408  49.6709408  44.5690000
 102.7269408  34.7419408  43.0350000 103.5559408  34.2759408  42.9230000
 102.3699408  34.4009408  43.8560000 100.9189408  45.5149408  41.9010000
 100.0709408  45.1079408  41.7250000 100.7289408  46.4519408  41.9560000
 101.2779408  38.6519408  39.3500000 101.3409408  37.9429408  39.9910000
 100.6729408  39.2789408  39.7440000  97.3769408  58.8119408  31.6800000
  96.6809408  58.2869408  31.2850000  97.2869408  58.6599408  32.6210000
  96.0069408  30.8799408  34.4630000  96.8559408  30.4709408  34.2940000
  96.1609408  31.8149408  34.3310000  99.4119408  38.7209408  36.5640000
  99.9009408  38.4549408  37.3430000 100.0189408  39.2819408  36.0810000
 100.9679408  48.3959408  45.9660000 101.6029408  47.8829408  45.4660000
 100.1389408  47.9329408  45.8490000  99.0729408  40.0809408  39.9790000
  99.3089408  40.3209408  40.8750000  98.1399408  39.8699408  40.0250000
  98.6629408  53.0849408  35.7270000  99.1639408  52.7029408  36.4480000
  99.3049408  53.2099408  35.0280000 102.1909408  33.0269408  36.6490000
 102.5829408  33.5069408  37.3790000 102.8259408  32.3399408  36.4440000
  92.7639408  40.3209408  45.9390000  92.1979408  40.7929408  45.3280000
  92.1579408  39.8679408  46.5260000  93.7929408  35.9289408  48.5460000
  94.5359408  35.3939408  48.2680000  93.0419408  35.5539408  48.0850000
  97.2649408  35.4869408  40.7700000  96.6499408  36.0649408  40.3180000
  97.6409408  34.9459408  40.0760000  94.4899408  34.3149408  38.6110000
  93.8189408  33.6769408  38.8510000  94.7519408  34.0669408  37.7250000
 108.2059408  41.1969408  41.0920000 108.7899408  41.1579408  40.3350000
 107.3289408  41.0939408  40.7250000 102.6159408  32.7419408  32.6460000
 102.2479408  33.1119408  31.8440000 103.2749408  33.3789408  32.9240000
 113.6789408  49.2509408  55.6230000 112.9449408  48.9459408  56.1550000
 114.0749408  49.9529408  56.1400000  93.9959408  40.0319408  49.2360000
  94.7059408  39.4889408  48.8920000  94.1359408  40.8909408  48.8370000
 103.6049408  39.6929408  33.1680000 104.0819408  38.9459408  33.5280000
 104.2209408  40.4239408  33.2310000 100.6809408  41.2849408  30.4750000
 100.9629408  41.9649408  29.8630000 100.5939408  41.7389408  31.3140000
  96.1979408  58.7859408  37.3920000  95.6229408  59.3219408  37.9370000
  96.9389408  59.3569408  37.1890000 105.6389408  36.6119408  38.9870000
 105.6199408  36.6119408  39.9440000 106.5409408  36.8459408  38.7660000
 106.1629408  50.3279408  39.8410000 105.8969408  50.1039408  38.9500000
 105.7949408  49.6309408  40.3840000 108.8369408  49.6889408  43.6890000
 109.6529408  49.8079408  44.1740000 109.0429408  49.9709408  42.7980000
  97.3569408  44.9479408  44.1060000  96.7409408  44.6609408  44.7800000
  97.7119408  44.1349408  43.7450000 112.1589408  41.9809408  38.6940000
 112.2029408  42.9319408  38.6020000 112.8179408  41.6489408  38.0840000
  91.5759408  31.8369408  42.3790000  91.6699408  31.3979408  41.5340000
  91.7809408  32.7539408  42.1980000  99.7979408  43.5629408  50.7020000
  99.9119408  42.6129408  50.6900000 100.2249408  43.8659408  49.9000000
  95.8779408  41.1339408  58.3530000  96.6849408  41.2089408  58.8610000
  95.1959408  40.9759408  59.0060000 102.6309408  43.1459408  44.3340000
 102.2629408  43.3379408  43.4710000 102.9819408  42.2589408  44.2530000
 100.1429408  38.5439408  32.9460000 100.7999408  38.6049408  32.2530000
 100.5939408  38.8529408  33.7320000  94.7069408  45.4199408  53.1280000
  94.5639408  45.8999408  52.3120000  94.9709408  46.0909408  53.7570000
  92.9149408  46.4549408  44.3630000  93.5279408  47.1049408  44.7050000
  92.2449408  46.3749408  45.0420000  99.9729408  31.6209408  39.1660000
 100.8859408  31.7839408  38.9290000 100.0159408  31.2549408  40.0490000
 102.5159408  39.3919408  37.0440000 102.9239408  38.9559408  36.2950000
 102.6179408  38.7729408  37.7670000 110.6819408  44.5549408  40.8580000
 110.4699408  44.9719408  41.6930000 109.8309408  44.3559408  40.4670000
 108.2509408  40.8129408  57.5970000 107.9399408  40.8729408  56.6940000
 109.1989408  40.9269408  57.5330000  95.0659408  42.1979408  48.1450000
  95.8319408  41.7159408  47.8330000  94.6889408  42.5859408  47.3550000
  94.4699408  36.9909408  51.0950000  94.3759408  36.7169408  50.1820000
  94.4599408  37.9469408  51.0610000 106.7989408  38.8369408  51.9130000
 106.1259408  38.2629408  51.5470000 107.3839408  38.2479408  52.3890000
 107.3339408  31.3149408  47.3720000 107.1459408  32.1649408  47.7700000
 106.5919408  30.7639408  47.6200000  94.3569408  54.6489408  43.1330000
  95.1819408  55.0809408  42.9100000  93.8739408  55.2999408  43.6410000
  96.0859408  44.8579408  41.4430000  95.4669408  45.3769408  40.9300000
  95.9959408  45.1919408  42.3360000 103.4409408  46.1729408  38.5040000
 103.3789408  45.9409408  37.5780000 102.7799408  46.8539408  38.6260000
  98.5019408  34.1379408  38.6120000  98.8629408  34.4539408  37.7840000
  98.9809408  33.3279408  38.7890000  99.2219408  59.9579408  49.5540000
  99.1209408  59.3189408  48.8490000  99.7729408  60.6449408  49.1780000
  95.8979408  56.1729408  45.7840000  94.9769408  56.4009408  45.6590000
  96.2559408  56.1269408  44.8980000  94.1719408  38.0399408  36.5580000
  93.5999408  38.3309408  37.2680000  94.3229408  38.8259408  36.0330000
 110.9309408  38.1219408  47.8530000 110.4899408  38.4399408  48.6410000
 111.2959408  38.9089408  47.4480000  93.5469408  59.1949408  44.3880000
  93.4529408  58.7309408  43.5560000  94.0779408  59.9629408  44.1760000
  97.6459408  45.5889408  30.5610000  98.1379408  44.9059408  31.0160000
  98.1499408  46.3889408  30.7110000  99.7719408  32.8839408  35.6410000
 100.6209408  32.7349408  36.0590000  99.7999408  32.3549408  34.8440000
  99.0259408  46.3989408  45.6100000  98.7289408  46.0099408  46.4320000
  98.4029408  46.0809408  44.9560000 114.9449408  40.7089408  52.4340000
 114.4059408  40.1399408  52.9830000 114.3479408  41.3989408  52.1430000
 102.9919408  36.0789408  50.9050000 103.2669408  36.9929408  50.8340000
 103.4549408  35.7489408  51.6750000 103.9919408  40.0189408  59.0960000
 104.7189408  39.4589408  59.3680000 104.3539408  40.5539408  58.3890000
 109.7759408  47.0209408  36.7930000 109.6259408  47.7959408  36.2530000
 109.1299408  47.0889408  37.4960000 114.9269408  45.3199408  39.5870000
 115.3159408  44.5869408  40.0650000 115.3279408  45.2809408  38.7190000
  95.7419408  41.5499408  42.2860000  95.5099408  41.7689408  43.1890000
  96.5849408  41.9799408  42.1450000 119.0709408  32.3679408  43.5800000
 119.1899408  32.7229408  44.4610000 119.9599408  32.2269408  43.2550000
 105.3469408  37.8619408  43.5700000 105.5059408  37.1419408  42.9600000
 106.2199408  38.1279408  43.8590000 103.9419408  57.7469408  41.2050000
 103.6119408  57.6369408  42.0970000 103.2129408  58.1429408  40.7270000
  91.1999408  47.8119408  59.4490000  91.9049408  48.0979408  60.0290000
  91.6469408  47.3699408  58.7280000  92.4759408  43.4329408  41.5170000
  92.9669408  43.3179408  42.3310000  92.3929408  44.3819408  41.4200000
  94.0809408  40.9719408  40.1910000  93.3579408  41.5829408  40.3280000
  94.6869408  41.1519408  40.9110000  92.4699408  32.2689408  39.4860000
  91.9209408  33.0069408  39.2190000  91.8819408  31.5139408  39.4670000
  93.0199408  46.0899408  41.5960000  92.9749408  46.1599408  42.5500000
  93.1089408  46.9939408  41.2930000 102.5739408  44.1909408  46.7410000
 102.6879408  43.7449408  45.9010000 103.3929408  44.6689408  46.8720000
 105.7109408  42.0629408  58.0250000 106.5479408  41.6029408  58.0980000
 105.9129408  42.9669408  58.2670000  99.4949408  45.9309408  33.8740000
  99.7659408  45.7989408  34.7830000  99.9059408  46.7569408  33.6190000
  98.0449408  48.2839408  47.2700000  97.8129408  47.5769408  47.8720000
  98.2419408  47.8409408  46.4450000  98.0199408  31.0509408  44.0630000
  98.1869408  31.8039408  43.4960000  98.5849408  31.1939408  44.8240000
 102.3299408  53.4389408  34.0320000 101.5709408  52.9229408  33.7610000
 103.0749408  53.0059408  33.6160000  93.8559408  58.2669408  36.1100000
  93.5329408  59.1219408  35.8250000  94.7399408  58.4389408  36.4320000
  92.1229408  52.1309408  47.8600000  92.8419408  51.8089408  47.3180000
  92.3069408  53.0629408  47.9750000 108.9909408  38.3469408  35.9690000
 109.9089408  38.3779408  36.2400000 108.8449408  37.4349408  35.7200000
  95.8029408  46.0779408  34.3120000  96.5949408  45.6419408  33.9980000
  95.6179408  45.6609408  35.1540000 105.6349408  41.6509408  33.7230000
 106.4549408  41.1739408  33.8460000 105.4639408  42.0589408  34.5730000
 103.6209408  45.0579408  41.2560000 102.8359408  45.3699408  41.7060000
 103.5009408  45.3309408  40.3470000  96.7349408  40.4089408  46.9120000
  97.6709408  40.2119408  46.8740000  96.3309408  39.5979408  47.2210000
  99.1019408  49.7299408  52.1000000  99.8669408  49.3959408  51.6300000
  99.3469408  50.6199408  52.3550000  98.8879408  50.4159408  31.5990000
  98.2829408  49.7779408  31.9770000  98.7719408  51.2019408  32.1330000
 103.4439408  30.5639408  35.1250000 104.2609408  30.5429408  35.6220000
 103.7179408  30.5099408  34.2090000  98.1309408  47.3219408  39.6840000
  98.1119408  48.2399408  39.4110000  97.9969408  47.3509408  40.6310000
 101.8609408  38.8709408  30.8180000 101.4729408  39.7019408  30.5460000
 102.8049408  39.0259408  30.7920000 104.0549408  50.7059408  49.8650000
 103.1819408  50.5199408  50.2090000 104.1139408  50.1809408  49.0660000
  98.7819408  44.8269408  40.5120000  97.8989408  44.6719408  40.8490000
  98.7299408  45.6859408  40.0920000 115.7759408  45.5769408  45.5950000
 116.5949408  45.4519408  45.1160000 115.8309408  44.9639408  46.3280000
 104.7319408  35.0299408  36.7360000 105.2879408  34.2539408  36.6670000
 105.2679408  35.6689408  37.2060000 104.7409408  48.3739408  58.8420000
 105.0239408  49.2489408  58.5730000 105.2609408  48.1829408  59.6220000
 104.8019408  45.4929408  46.8610000 104.9129408  46.3009408  46.3600000
 105.6729408  45.3059408  47.2110000  97.7279408  43.2519408  56.7680000
  97.4999408  42.7349408  57.5410000  98.4259408  43.8349408  57.0650000
 108.8059408  48.6449408  59.5420000 109.1739408  47.7629408  59.4910000
 109.4979408  49.2139408  59.2050000 117.4529408  42.4809408  42.6510000
 116.9679408  41.6609408  42.7380000 118.3159408  42.2169408  42.3320000
 109.8039408  40.9529408  38.8190000 110.7069408  41.2619408  38.7410000
 109.2889408  41.5889408  38.3220000 103.6759408  42.0399408  38.3110000
 102.9579408  42.4469408  38.7970000 103.3909408  41.1369408  38.1740000
  94.4319408  29.9699408  39.1520000  94.9539408  30.3289408  39.8690000
  93.7079408  30.5879408  39.0490000  93.1979408  45.2869408  37.9950000
  92.5999408  45.4139408  37.2590000  92.7259408  44.7069408  38.5910000
 103.4919408  40.2479408  45.4210000 104.1179408  40.9619408  45.5410000
 104.0109408  39.5349408  45.0460000 118.8019408  36.7519408  45.1170000
 118.5949408  36.3399408  44.2790000 117.9779408  37.1509408  45.3980000
  96.3509408  42.5299408  50.8020000  95.7639408  42.6359408  50.0530000
  96.8079408  43.3679408  50.8690000  92.1939408  32.4329408  45.0200000
  91.9859408  32.0149408  44.1840000  92.7589408  33.1699408  44.7850000
 110.3539408  31.1919408  44.3940000 111.2449408  31.0649408  44.0680000
 110.3279408  32.1089408  44.6690000 102.9529408  48.1909408  34.7110000
 102.8259408  48.4779408  35.6150000 103.8859408  48.3269408  34.5450000
 101.2079408  43.2309408  39.6310000 101.4929408  43.1859408  40.5430000
 100.4689408  43.8389408  39.6400000  95.2889408  46.5969408  31.2440000
  96.1979408  46.4009408  31.4730000  95.0949408  46.0109408  30.5130000
  95.9609408  31.2959408  40.8390000  96.7089408  31.8909408  40.8830000
  95.2019408  31.8499408  41.0230000 104.0369408  39.3019408  40.0320000
 103.0859408  39.2279408  39.9500000 104.3769408  38.5189408  39.5980000
 103.8409408  45.9929408  49.9150000 103.3829408  45.6059408  49.1690000
 104.1529408  46.8389408  49.5910000 107.9259408  43.8949408  44.1400000
 106.9729408  43.9149408  44.2200000 108.2449408  44.1439408  45.0080000
 107.9639408  34.7779408  30.3340000 107.0519408  35.0459408  30.4500000
 108.1979408  34.3589408  31.1630000 110.7849408  41.9599408  47.6010000
 111.3309408  41.2469408  47.2700000 110.9109408  42.6709408  46.9720000
 106.0959408  40.7469408  39.5820000 105.3069408  40.3579408  39.9590000
 106.3329408  40.1619408  38.8630000 101.8799408  41.9409408  33.1400000
 101.5959408  41.9629408  34.0530000 102.2839408  41.0799408  33.0340000
 100.6029408  48.1769408  42.3180000  99.6709408  48.0139408  42.4610000
 100.6839408  49.1309408  42.3230000 106.8019408  50.5669408  45.9690000
 107.5409408  49.9729408  45.8380000 106.7199408  51.0359408  45.1380000
  96.3819408  33.8779408  36.2780000  96.8239408  34.1609408  37.0780000
  96.7769408  34.4079408  35.5850000 107.8219408  40.6709408  54.7140000
 107.0509408  40.2079408  54.3860000 108.5589408  40.2549408  54.2680000
 110.9929408  46.8169408  31.4860000 111.3499408  47.6909408  31.3270000
 110.4049408  46.9299408  32.2320000 117.1529408  43.0869408  46.5300000
 117.5009408  42.5009408  47.2020000 116.4709408  42.5749408  46.0950000
 118.4819408  40.9349408  39.6410000 118.8959408  41.1749408  40.4700000
 118.9019408  41.4979408  38.9910000 104.8989408  56.5689408  38.8670000
 104.8359408  56.8249408  39.7880000 104.8469408  55.6129408  38.8800000
  96.4319408  39.2409408  39.6680000  95.6539408  39.7959408  39.6110000
  96.1929408  38.4429408  39.1960000 107.9739408  40.1959408  34.3400000
 108.5639408  40.9399408  34.4650000 108.2259408  39.5729408  35.0210000
 104.5639408  41.3319408  42.5050000 105.3129408  41.9219408  42.4160000
 104.8419408  40.5249408  42.0710000  95.8949408  49.3489408  40.4970000
  95.2319408  49.5939408  41.1420000  95.4229408  48.8129408  39.8600000
 100.5329408  34.8369408  41.0850000 100.4469408  35.5079408  40.4070000
 101.3799408  35.0149408  41.4930000  98.3729408  53.4639408  43.1860000
  99.1639408  53.9339408  42.9220000  97.6539408  53.9979408  42.8490000
  98.0019408  43.8009408  34.2870000  98.6839408  44.4149408  34.0160000
  97.9259408  43.9279408  35.2330000  98.5919408  50.0079408  41.6570000
  97.6919408  49.6829408  41.6220000  98.5009408  50.9549408  41.7650000
  94.0379408  57.2559408  39.9530000  94.9729408  57.0479408  39.9550000
  93.9999408  58.1869408  39.7350000 107.8569408  35.7969408  36.3200000
 108.7739408  35.6119408  36.1180000 107.3679408  35.4069408  35.5960000
 114.8209408  37.4299408  38.6100000 114.9309408  36.7309408  37.9650000
 115.4989408  38.0679408  38.3900000  99.6499408  41.8419408  37.8760000
 100.4039408  42.2779408  38.2730000  99.2779408  41.3139408  38.5820000
 107.8409408  41.3329408  51.0730000 107.5779408  40.4969408  51.4570000
 107.0239408  41.8229408  50.9800000 106.4069408  33.6289408  49.0480000
 107.1099408  34.2789408  49.0450000 106.1969408  33.5069408  49.9740000
 101.6449408  38.1269408  53.6070000 101.9199408  37.4939408  54.2710000
 101.9309408  38.9729408  53.9510000 108.3389408  38.6359408  47.0160000
 108.1949408  39.4509408  47.4970000 109.2549408  38.4159408  47.1850000
  97.8239408  39.7049408  31.9020000  98.6989408  39.3949408  32.1340000
  97.3699408  39.7939408  32.7400000  97.4669408  39.5539408  56.4890000
  97.0789408  40.1509408  57.1290000  97.8689408  40.1279408  55.8380000
 103.4879408  38.3599408  47.7820000 102.5719408  38.4729408  48.0380000
 103.7179408  39.1799408  47.3450000 117.1329408  43.4899408  36.5760000
 116.2129408  43.7239408  36.4540000 117.5309408  44.2739408  36.9540000
  95.3919408  39.8369408  51.5440000  94.4879408  40.0839408  51.7380000
  95.8819408  40.6569408  51.5990000 105.6989408  43.6459408  51.5090000
 104.9289408  44.2119408  51.4530000 105.7449408  43.3939408  52.4310000
  95.3759408  35.8509408  34.5400000  95.9379408  36.5929408  34.3170000
  95.1269408  36.0039408  35.4520000 111.4999408  50.8909408  51.6630000
 111.5299408  51.8449408  51.5890000 111.2169408  50.5929408  50.7990000
 106.1989408  42.7839408  54.3270000 106.9519408  42.3809408  54.7590000
 105.5079408  42.1229408  54.3830000 110.3079408  42.6819408  51.5200000
 109.5659408  42.7069408  52.1230000 110.0339408  43.2229408  50.7790000
 113.5869408  41.2759408  33.3410000 112.6949408  41.6219408  33.3230000
 114.1119408  41.9439408  32.9000000  97.8799408  56.0279408  53.7110000
  98.5289408  56.2299408  53.0370000  97.0729408  55.8609408  53.2240000
 108.4169408  44.7709408  50.7260000 108.8399408  45.1919408  51.4750000
 107.5249408  44.5919408  51.0240000 104.9759408  45.1649408  53.9550000
 105.6309408  45.7189408  53.5300000 105.4869408  44.4979408  54.4130000
 110.1269408  47.4139408  47.2570000 110.8569408  48.0169408  47.1180000
 110.2649408  47.0689408  48.1390000 107.7229408  39.0149408  44.5310000
 108.2079408  39.8399408  44.5330000 107.7629408  38.7109408  45.4380000
 107.0589408  34.2909408  33.6940000 107.3229408  33.4279408  34.0130000
 106.3329408  34.1129408  33.0950000 102.1429408  43.0499408  53.4810000
 102.7959408  43.1569408  52.7890000 101.8279408  43.9369408  53.6530000
  99.2999408  34.7489408  46.6790000  98.4779408  34.7659408  46.1890000
  99.0309408  34.7099408  47.5970000 100.2849408  39.8869408  42.5980000
 100.8409408  39.1149408  42.4900000 100.1829408  39.9779408  43.5460000
 101.5199408  40.6549408  54.6330000 101.7749408  41.4879408  54.2350000
 100.7539408  40.3749408  54.1320000 118.8309408  37.2719408  32.2880000
 118.8699408  36.9779408  33.1980000 119.5399408  36.7969408  31.8530000
 102.8319408  36.0959408  55.8560000 102.2219408  36.7999408  56.0740000
 102.2899408  35.4319408  55.4300000 112.0739408  39.3869408  59.4840000
 112.9599408  39.0269408  59.4310000 111.4999408  38.6319408  59.3590000
 107.8369408  35.8009408  48.3520000 108.7399408  35.6199408  48.0890000
 107.7859408  36.7559408  48.3950000 105.8959408  49.4069408  54.8660000
 105.5879408  48.8379408  55.5710000 106.8499408  49.3899408  54.9430000
 102.3099408  47.8379408  48.4750000 101.5999408  47.7869408  47.8350000
 102.9599408  48.4099408  48.0670000 111.5769408  40.0929408  43.5580000
 110.8019408  40.5149408  43.9290000 111.6999408  40.5189408  42.7100000
  93.0429408  42.8729408  55.6090000  93.5349408  42.7249408  54.8020000
  92.7319408  42.0039408  55.8640000  95.6739408  53.6199408  30.0820000
  96.0949408  53.8689408  30.9050000  96.3839408  53.2649408  29.5480000
  93.0279408  48.2679408  31.4330000  93.1569408  49.2159408  31.4620000
  93.8729408  47.9189408  31.1520000  95.6639408  38.1749408  48.2520000
  96.2629408  37.8789408  48.9380000  95.1889408  37.3859408  47.9920000
  95.9109408  36.2639408  53.1760000  95.8639408  35.3079408  53.1610000
  95.2579408  36.5469408  52.5370000  93.5549408  42.7819408  33.2750000
  92.7219408  42.4139408  33.5720000  93.4619408  43.7249408  33.4110000
 102.0799408  32.2879408  55.6550000 101.8949408  32.3419408  56.5920000
 101.6749408  33.0719408  55.2840000  93.4729408  39.6029408  57.1470000
  93.7089408  38.7169408  56.8730000  94.0979408  39.8149408  57.8400000
 110.1159408  33.8369408  45.0270000 110.6079408  34.5009408  44.5440000
 109.2639408  33.8059408  44.5920000  99.1499408  59.6889408  52.5040000
  99.9349408  60.2339408  52.5540000  99.1679408  59.3219408  51.6200000
 100.2899408  46.9219408  56.2360000 100.6129408  46.3839408  55.5120000
 100.5349408  47.8159408  55.9980000  95.6959408  36.5609408  57.9650000
  96.2729408  36.7839408  57.2350000  96.2299408  36.7069408  58.7460000
  99.0229408  40.0999408  53.4030000  98.3649408  40.6929408  53.7660000
  98.5369408  39.3039408  53.1870000  92.6359408  39.1879408  42.6550000
  92.1249408  39.8089408  43.1730000  91.9839408  38.6069408  42.2650000
 100.1199408  31.7629408  33.4120000  99.5699408  31.8339408  32.6310000
 100.9739408  32.0939408  33.1340000  97.1549408  37.1399408  55.5410000
  96.6739408  37.0259408  54.7220000  97.2739408  38.0859408  55.6200000
 104.3109408  40.8199408  55.0000000 103.4729408  40.6859408  54.5580000
 104.6099408  39.9379408  55.2200000 114.7679408  36.0699408  47.1460000
 113.8289408  36.0299408  46.9640000 115.1819408  35.7409408  46.3480000
  95.1569408  41.4689408  45.1180000  94.3929408  41.0489408  45.5120000
  95.9069408  41.0229408  45.5130000 106.3049408  47.8459408  48.6500000
 106.4699408  48.5339408  48.0040000 106.6669408  47.0539408  48.2540000
 101.4229408  31.4139408  52.3640000 101.7979408  31.2949408  53.2370000
 102.1729408  31.6199408  51.8060000  94.3739408  32.0349408  52.5920000
  95.0449408  32.5869408  52.9950000  93.7539408  32.6539408  52.2080000
  97.8019408  46.5439408  37.0640000  97.6149408  45.6139408  37.1890000
  97.8329408  46.9049408  37.9500000  99.5459408  44.8449408  57.9910000
  99.9689408  45.6099408  57.6000000  99.0599408  45.1949408  58.7380000
  91.7749408  30.6259408  58.9360000  92.5749408  31.0719408  59.2140000
  91.1079408  31.3129408  58.9280000 102.7309408  42.2139408  48.9580000
 102.2289408  41.4239408  48.7610000 102.6519408  42.7509408  48.1690000
  93.0389408  57.9559408  58.5700000  93.2659408  57.7619408  57.6600000
  92.9049408  58.9029408  58.5870000  98.8229408  49.2789408  58.8730000
  99.0599408  48.7649408  59.6450000  98.2279408  49.9509408  59.2050000
 100.8119408  34.5099408  54.7060000  99.9129408  34.5729408  55.0290000
 100.7219408  34.4639408  53.7540000  98.1589408  41.4079408  59.5170000
  99.1069408  41.5379408  59.5250000  97.9899408  40.8219408  60.2550000
  97.4109408  38.2469408  52.5390000  97.0039408  37.3889408  52.6570000
  96.8979408  38.6629408  51.8460000  95.9589408  32.4859408  59.6520000
  95.4029408  32.4139408  60.4270000  95.4749408  32.0279408  58.9650000
 118.9339408  29.9049408  57.3680000 119.3039408  30.6489408  57.8430000
 119.4589408  29.8439408  56.5700000 108.8269408  33.5309408  52.3500000
 108.8589408  32.6169408  52.6340000 109.3369408  33.5479408  51.5400000
 103.0339408  44.4019408  33.2410000 103.4299408  44.6769408  32.4150000
 102.6019408  43.5729408  33.0360000 104.6579408  31.6439408  54.3280000
 105.2989408  31.5509408  55.0330000 103.8909408  32.0299408  54.7510000
  99.2199408  40.8319408  50.8010000  98.2959408  40.9889408  50.6070000
  99.2279408  40.5439408  51.7140000  98.1889408  47.1529408  53.5900000
  99.0689408  47.0679408  53.9560000  97.9749408  48.0809408  53.6910000
  97.2109408  38.0059408  35.3860000  96.6419408  38.7579408  35.5510000
  97.9689408  38.1489408  35.9520000 120.1159408  38.1649408  41.4220000
 120.1929408  37.2509408  41.1470000 119.2939408  38.4639408  41.0340000
 111.0649408  39.6399408  32.0140000 111.5329408  39.0169408  32.5690000
 111.5449408  39.6309408  31.1850000  94.8949408  48.8529408  36.4910000
  95.2919408  49.6979408  36.7040000  95.4089408  48.5259408  35.7530000
  90.8779408  59.1329408  31.2170000  91.1779408  59.6449408  30.4660000
  91.0379408  58.2229408  30.9670000  96.9089408  34.5699408  45.4710000
  96.4269408  35.1219408  44.8560000  96.2819408  34.3849408  46.1700000
 105.2509408  38.2789408  55.3330000 104.5369408  37.6459408  55.4040000
 105.7219408  38.2039408  56.1630000 106.1519408  46.8349408  36.9130000
 105.4469408  46.5409408  36.3350000 105.7099408  47.0769408  37.7270000
  91.6169408  39.6609408  55.2060000  92.3259408  39.5369408  55.8370000
  92.0529408  39.9679408  54.4120000 105.4429408  30.1609408  43.2290000
 106.1079408  29.5109408  43.4580000 105.5879408  30.8799408  43.8430000
 114.0269408  49.3799408  51.4100000 114.2849408  48.4959408  51.6720000
 113.1719408  49.5119408  51.8210000 104.3959408  48.1949408  40.7400000
 104.3709408  48.1429408  41.6950000 104.2869408  47.2889408  40.4480000
  95.1149408  34.0059408  56.8730000  94.1869408  34.1409408  56.6820000
  95.3489408  34.7299408  57.4530000  94.5679408  42.7609408  53.3450000
  94.5269408  43.7069408  53.4870000  94.8839408  42.6679408  52.4460000
 111.5419408  32.2789408  54.3060000 111.1949408  32.1159408  53.4290000
 111.4429408  31.4439408  54.7630000 104.6329408  53.1429408  40.1660000
 104.8209408  53.6079408  39.3500000 104.7559408  52.2189408  39.9490000
 105.3159408  42.0549408  46.3340000 104.9349408  42.8129408  46.7780000
 106.1729408  41.9419408  46.7450000 112.2929408  47.8109408  53.8080000
 112.1829408  47.0259408  54.3450000 112.7159408  48.4419408  54.3890000
  99.7159408  47.2639408  30.6440000 100.4809408  46.8889408  30.2080000
 100.0779408  47.7609408  31.3780000  99.6429408  57.8269408  54.9720000
  99.4569408  57.5769408  54.0670000 100.3899408  58.4219408  54.9080000
  97.2109408  41.8149408  54.3940000  96.3699408  42.1359408  54.0660000
  97.5599408  42.5409408  54.9100000  90.1669408  38.8079408  50.3710000
  89.8829408  38.0049408  50.8070000  89.9809408  39.5029408  51.0020000
 101.3649408  39.9299408  48.7550000 100.7509408  39.2719408  48.4300000
 101.2129408  39.9549408  49.7000000 104.3869408  50.9349408  31.0510000
 103.5169408  51.2199408  30.7720000 104.8489408  50.7409408  30.2360000
 100.7769408  39.9669408  45.3550000 101.7099408  40.1599408  45.2610000
 100.7469408  39.1889408  45.9110000  93.5569408  37.1909408  56.0440000
  94.3569408  36.6719408  56.1280000  93.4109408  37.2549408  55.1000000
 109.8279408  45.7489408  43.0870000 110.5869408  45.7009408  43.6680000
 109.2939408  44.9909408  43.3260000  90.9909408  44.1799408  59.6390000
  91.5389408  44.9439408  59.4570000  90.9489408  44.1369408  60.5940000
 101.3459408  43.1939408  58.8840000 100.7059408  43.7409408  58.4290000
 101.9039408  42.8469408  58.1880000 118.4329408  31.3169408  47.7720000
 118.3759408  30.3929408  48.0160000 118.3789408  31.7879408  48.6040000
 106.9629408  46.6139408  52.6300000 106.8069408  47.5369408  52.8310000
 107.8629408  46.5879408  52.3060000 116.9299408  41.9079408  31.8610000
 116.9209408  42.4829408  32.6270000 117.6339408  41.2839408  32.0360000
 105.8339408  33.3109408  31.4930000 106.3929408  32.5349408  31.4550000
 105.4889408  33.4019408  30.6050000  90.8749408  33.4179408  53.9600000
  90.5559408  32.5409408  53.7490000  91.6379408  33.5389408  53.3940000
 103.8929408  49.7199408  47.2500000 103.8199408  50.5249408  46.7370000
 104.7049408  49.3139408  46.9450000 100.5189408  37.1779408  45.9270000
 100.5439408  36.3239408  46.3590000 100.1409408  36.9999408  45.0660000
 105.9109408  57.6449408  50.9300000 105.4609408  56.9469408  50.4540000
 105.2979408  57.8989408  51.6190000 105.5579408  34.1889408  56.1150000
 104.8629408  34.8469408  56.1260000 105.7909408  34.1009408  55.1910000
  99.3779408  38.0839408  58.2570000  98.8019408  38.1769408  57.4980000
 100.1869408  38.5259408  58.0000000  97.9469408  37.0969408  49.7360000
  97.9239408  36.1409408  49.7090000  98.7869408  37.3059408  50.1460000
 106.8989408  59.9439408  35.6780000 106.7499408  59.2089408  36.2740000
 106.6159408  59.6199408  34.8230000  99.8299408  57.2289408  35.4010000
  98.9329408  57.4469408  35.1470000 100.3679408  57.5429408  34.6740000
  91.1219408  36.0539408  39.6410000  90.6489408  36.3209408  38.8530000
  91.9209408  36.5809408  39.6320000 101.1519408  52.9069408  50.7830000
 101.1849408  51.9589408  50.9060000 100.5209408  53.0349408  50.0740000
 101.0869408  55.7069408  37.3250000 100.8939408  56.1889408  38.1280000
 100.7599408  56.2699408  36.6230000  92.6749408  48.7829408  40.9760000
  93.1839408  49.3299408  41.5740000  93.0549408  48.9529408  40.1140000
 103.9669408  45.5319408  35.7910000 104.1179408  44.5939408  35.6770000
 103.3829408  45.7699408  35.0710000  92.1679408  34.6769408  42.0900000
  91.6919408  35.0179408  41.3330000  91.8439408  35.1909408  42.8290000
  99.7219408  58.0699408  38.6160000  99.4219408  58.0619408  37.7080000
  99.1469408  58.6979408  39.0530000 101.7279408  50.3879408  51.2710000
 101.6209408  49.5149408  50.8940000 102.3419408  50.2629408  51.9960000
 118.0529408  55.8899408  42.2050000 118.2489408  56.7309408  42.6180000
 117.0989408  55.8779408  42.1250000 103.8599408  36.7389408  32.4700000
 103.0679408  37.2019408  32.1940000 103.5509408  36.0939408  33.1060000
  94.9999408  59.5199408  48.2440000  95.1339408  59.6689408  49.1800000
  94.6149408  60.3359408  47.9240000 100.5059408  49.8669408  36.1100000
  99.8559408  49.5139408  35.5030000  99.9949408  50.3779408  36.7380000
 103.0909408  35.1259408  34.6640000 103.6829408  35.1169408  35.4160000
 102.3979408  34.5079408  34.8970000  93.3269408  54.6049408  49.3680000
  94.2059408  54.2289408  49.3230000  93.4169408  55.4729408  48.9750000
  90.0379408  51.4779408  34.6990000  90.9309408  51.1549408  34.5830000
  89.4899408  50.8369408  34.2450000 105.7609408  55.8819408  34.7460000
 105.6409408  55.0999408  34.2060000 104.9199408  55.9989408  35.1890000
 104.2179408  50.3289408  43.1910000 104.4609408  51.2159408  42.9250000
 105.0449408  49.9189408  43.4450000 107.6079408  51.4719408  51.4500000
 107.1129408  52.1989408  51.8280000 107.2049408  50.6879408  51.8230000
 102.8429408  54.9729408  51.9030000 102.4879408  54.2539408  51.3800000
 103.3269408  55.5089408  51.2750000  94.6779408  52.4899408  46.5850000
  95.2769408  53.2359408  46.6160000  95.2109408  51.7439408  46.8610000
  95.7979408  51.3969408  36.7650000  96.4539408  51.7799408  37.3470000
  94.9819408  51.4349408  37.2640000 120.0089408  51.9419408  59.8560000
 119.3139408  52.0199408  60.5100000 119.9439408  51.0409408  59.5420000
 107.4849408  57.6719408  37.7400000 106.6389408  57.2889408  37.9700000
 107.8719408  57.0489408  37.1250000  92.3099408  48.7869408  35.5240000
  91.6629408  48.6259408  36.2120000  93.1549408  48.6519408  35.9530000
 104.3059408  58.7819408  37.3720000 104.7559408  58.1469408  37.9280000
 103.9669408  58.2639408  36.6420000 114.3189408  54.7159408  44.1060000
 114.8969408  53.9829408  43.8980000 114.5489408  55.3919408  43.4680000
  96.4959408  48.9039408  32.3800000  95.9039408  49.5189408  31.9470000
  95.9969408  48.0889408  32.4350000  95.8519408  57.3879408  59.9390000
  95.2559408  57.5509408  59.2070000  95.3619408  56.8089408  60.5230000
 106.4369408  49.0669408  51.2430000 106.5039408  48.3559408  50.6060000
 105.6939408  49.5899408  50.9420000  97.2649408  53.0889408  33.3920000
  97.5729408  53.8519408  32.9040000  97.6459408  53.1919408  34.2640000
 100.3759408  53.4779408  47.1180000  99.6279408  53.2069408  47.6500000
 100.5139408  52.7509408  46.5100000 105.4449408  55.1009408  44.0140000
 106.2459408  55.2109408  43.5020000 105.0809408  54.2679408  43.7140000
  99.1669408  35.4379408  35.7480000  98.8509408  35.6709408  34.8750000
  99.4189408  34.5179408  35.6750000  94.2729408  50.1469408  42.5690000
  93.8439408  50.9559408  42.8460000  95.0339408  50.0699408  43.1450000
  93.2469408  45.4839408  33.2100000  93.6359408  46.1419408  32.6340000
  93.7999408  45.4919408  33.9910000  94.1789408  47.7809408  38.9290000
  94.2309408  48.1619408  38.0530000  93.5919408  47.0319408  38.8310000
 101.1639408  59.3629408  44.0990000 101.9599408  59.0219408  44.5070000
 100.8289408  60.0059408  44.7250000 101.2709408  59.4239408  30.7540000
 101.1439408  59.1009408  29.8620000 100.7259408  60.2099408  30.8040000
 100.1639408  44.3359408  47.9330000  99.7059408  43.4989408  47.8530000
 100.9369408  44.2409408  47.3770000  96.7049408  54.8669408  37.0240000
  97.3139408  54.3839408  36.4660000  96.0519408  55.2189408  36.4190000
  90.7809408  47.7779408  33.0700000  91.3749408  47.8329408  33.8190000
  91.3059408  48.0689408  32.3250000  96.9129408  56.0559408  43.0170000
  96.7609408  56.9919408  43.1450000  97.8609408  55.9539408  43.1010000
  99.9689408  55.5049408  41.5150000 100.0609408  56.2039408  42.1630000
  99.5309408  55.9229408  40.7730000 102.8559408  32.0519408  39.6080000
 103.6339408  31.5559408  39.8640000 102.6389408  32.5739408  40.3800000
 100.9059408  52.2719408  31.9450000 100.8709408  51.3879408  31.5790000
 100.4339408  52.8129408  31.3120000  90.6149408  44.7429408  32.4330000
  89.9859408  45.4539408  32.5520000  91.4659408  45.1429408  32.6100000
 105.8529408  53.8829408  37.9390000 105.9139408  53.7729408  36.9900000
 106.7569408  54.0099408  38.2250000  97.6779408  45.6369408  48.2270000
  97.3809408  45.6059408  49.1360000  98.4549408  45.0779408  48.2080000
  94.3649408  52.5619408  40.9050000  93.8259408  53.0119408  41.5560000
  95.0559408  53.1889408  40.6910000 101.6299408  53.2589408  41.2250000
 101.9139408  53.2529408  40.3110000 100.9499408  53.9319408  41.2610000
  93.3079408  52.3489408  44.1740000  93.6449408  53.1049408  43.6930000
  93.8179408  52.3319408  44.9840000 110.0859408  33.0319408  31.4180000
 110.4329408  32.3479408  30.8450000 109.2249408  32.7079408  31.6830000
 118.1769408  32.4219408  50.1510000 117.3749408  32.2089408  50.6290000
 118.4289408  33.2859408  50.4760000  90.9919408  29.9949408  55.7370000
  91.7769408  30.0659408  55.1940000  91.2419408  30.3889408  56.5730000
  90.7819408  46.6869408  45.9170000  90.1779408  46.2529408  46.5200000
  90.3069408  47.4619408  45.6180000  96.7389408  54.1779408  39.9850000
  96.8389408  55.0859408  40.2700000  96.8689408  54.2079408  39.0370000
 100.4329408  31.4439408  45.7220000 100.5989408  31.4719408  46.6650000
 100.7079408  32.3039408  45.4050000 101.3089408  49.2199408  55.3400000
 102.0399408  49.3309408  54.7320000 101.4799408  49.8519408  56.0380000
  93.3309408  49.3729408  48.2010000  92.4419408  49.5659408  48.5000000
  93.8949408  49.6769408  48.9110000 116.3379408  38.5209408  44.7070000
 115.9319408  39.3879408  44.7270000 115.5999408  37.9109408  44.7000000
  93.1059408  51.9459408  38.1800000  93.4189408  52.7029408  38.6760000
  92.1519408  52.0229408  38.2010000 105.4369408  53.2539408  50.0090000
 106.0059408  53.1119408  49.2530000 105.0009408  52.4129408  50.1430000
  97.0619408  51.4499408  39.2770000  97.2629408  52.2119408  39.8210000
  96.5489408  50.8769408  39.8470000 102.0659408  58.8869408  39.7040000
 101.2279408  58.5389408  39.3980000 102.5209408  59.1529408  38.9050000
 101.2699408  56.0949408  46.5260000 101.8939408  56.0249408  45.8040000
 101.2699408  55.2259408  46.9290000 100.8659408  48.4719408  32.7640000
 100.6719408  49.4039408  32.8690000 101.5619408  48.2989408  33.3990000
 103.6439408  30.4429408  31.8470000 102.8629408  30.2199408  31.3410000
 103.6489408  31.3999408  31.8730000  93.1739408  30.5829408  34.5740000
  94.1289408  30.6499408  34.5680000  92.8779408  31.4079408  34.9580000
  99.4209408  51.4549408  37.9740000  98.8169408  51.4819408  38.7160000
 100.2109408  51.8929408  38.2920000 118.8549408  53.9129408  40.4620000
 118.1329408  53.2899408  40.3720000 118.5459408  54.5469408  41.1090000
  99.8059408  45.8759408  51.7940000  98.8959408  46.1509408  51.9020000
  99.7489408  44.9669408  51.5000000  97.9939408  51.3219408  44.6600000
  98.8919408  51.3319408  44.9910000  97.9779408  52.0019408  43.9870000
 115.4639408  55.1709408  38.5830000 114.5769408  55.4189408  38.3240000
 115.9009408  54.9499408  37.7600000 114.4759408  50.8279408  49.0240000
 115.3199408  51.0919408  48.6570000 114.7019408  50.2359408  49.7420000
  98.2409408  49.7249408  55.2630000  98.0479408  49.1849408  56.0300000
  99.1959408  49.7239408  55.2030000 102.9509408  31.3049408  42.5350000
 103.5739408  30.6049408  42.7320000 102.1069408  30.9639408  42.8300000
 119.8429408  56.8959408  38.9490000 119.2369408  56.1979408  38.6960000
 120.4319408  56.4839408  39.5810000 103.2739408  56.0209408  35.5640000
 103.0779408  55.8549408  36.4860000 102.5129408  55.6839408  35.0920000
 103.9679408  53.1959408  42.7510000 103.0609408  53.1179408  42.4530000
 104.4749408  53.3119408  41.9480000  97.9659408  53.2009408  54.6000000
  98.6309408  52.7009408  54.1270000  97.9549408  54.0549408  54.1660000
 118.8189408  58.9629408  49.5480000 119.3499408  58.7979408  50.3270000
 117.9169408  58.8389408  49.8420000  97.1999408  32.1849408  49.7970000
  97.7519408  31.4189408  49.6400000  96.4489408  31.8439408  50.2840000
 106.6659408  42.2829408  31.1970000 106.1439408  43.0379408  30.9240000
 106.2319408  41.9649408  31.9890000 101.4439408  45.8639408  53.9440000
 102.0879408  46.3889408  53.4680000 100.7859408  45.6379408  53.2870000
 104.5009408  42.8519408  35.8720000 104.3729408  42.6739408  36.8040000
 103.6179408  42.8409408  35.5020000 100.8959408  49.7499408  39.9370000
 100.1039408  49.8069408  40.4710000 101.6099408  49.9329408  40.5480000
 109.0259408  44.6979408  35.6060000 109.1789408  45.5409408  36.0320000
 108.8219408  44.0999408  36.3250000  96.7689408  58.4729408  44.2330000
  97.3599408  59.2059408  44.4070000  95.9639408  58.6979408  44.6990000
  99.7699408  52.6009408  56.6800000  99.2829408  52.6389408  55.8560000
  99.7329408  53.4939408  57.0220000 117.3529408  30.3099408  42.8330000
 117.5099408  29.6729408  43.5300000 117.9369408  31.0399408  43.0390000
 102.1129408  48.3489408  37.7370000 101.7449408  48.5769408  38.5910000
 101.5649408  48.8179408  37.1070000 114.6629408  49.5749408  42.4850000
 114.9049408  48.8659408  43.0800000 114.1909408  49.1409408  41.7740000
  91.4539408  59.7109408  45.8930000  91.4329408  60.6619408  46.0040000
  92.2849408  59.5399408  45.4500000  96.8329408  50.5419408  47.8900000
  97.4509408  49.8449408  47.6710000  96.2749408  50.1639408  48.5700000
 115.2199408  44.8659408  31.3530000 115.3179408  44.0859408  30.8060000
 114.4369408  45.3009408  31.0120000 108.8679408  57.6099408  33.3490000
 109.7269408  57.3279408  33.6620000 108.2529408  57.2769408  34.0020000
  98.3579408  34.1779408  31.8600000  98.4489408  34.8209408  32.5630000
  97.5369408  33.7239408  32.0540000 101.2019408  58.7629408  33.4690000
 101.2119408  59.5939408  33.9450000 101.6049408  58.9659408  32.6240000
  96.1329408  53.5059408  50.1000000  96.3269408  53.2889408  49.1880000
  96.9599408  53.8419408  50.4480000 100.2109408  58.4339408  41.9620000
 101.0079408  58.2959408  41.4500000 100.5229408  58.6039408  42.8510000
 107.3879408  52.3639408  57.4260000 107.6389408  52.8729408  58.1970000
 108.1209408  52.4709408  56.8190000  91.6809408  58.4499408  37.5820000
  92.3499408  57.9409408  37.1260000  90.8959408  57.9039408  37.5440000
 115.9239408  52.7609408  43.2040000 115.7279408  52.7439408  42.2670000
 116.0819408  51.8459408  43.4340000 109.3099408  56.6769408  44.0320000
 109.6109408  56.8749408  44.9190000 109.3619408  55.7229408  43.9680000
  93.3539408  54.7089408  39.0660000  93.7559408  55.5449408  39.3010000
  92.5179408  54.9489408  38.6650000  91.4129408  56.7549408  30.3960000
  92.1889408  57.0679408  29.9310000  91.2349408  55.8959408  30.0140000
 119.6089408  57.8679408  45.3230000 120.1049408  57.1339408  44.9590000
 120.2649408  58.5469408  45.4810000 112.3659408  44.6299408  38.6880000
 111.7399408  44.6659408  39.4110000 113.1379408  45.0919408  39.0160000
  91.5119408  49.0599408  43.6060000  90.8219408  49.4449408  43.0660000
  92.0049408  48.5029408  43.0030000  93.9449408  56.8669408  48.1460000
  93.7629408  56.8199408  47.2080000  94.4529408  57.6719408  48.2510000
 103.2799408  52.0519408  45.6120000 102.3279408  51.9589408  45.6370000
 103.5199408  51.8259408  44.7140000 102.9559408  51.3659408  36.3640000
 103.4859408  51.8059408  35.6990000 102.4029408  50.7609408  35.8690000
  93.4409408  36.1809408  31.9050000  94.0029408  36.8479408  31.5100000
  93.9759408  35.7989408  32.6010000 107.0119408  53.5979408  30.0990000
 107.4669408  54.3679408  30.4400000 106.1409408  53.9179408  29.8630000
  97.1949408  52.4749408  58.1130000  96.6079408  52.3649408  57.3650000
  98.0739408  52.3999408  57.7400000 108.2589408  42.5979408  37.4360000
 107.7069408  41.9699408  36.9700000 107.6589408  43.0499408  38.0290000
  90.1369408  33.5589408  35.8370000  89.9919408  32.6449408  35.5950000
  90.0729408  33.5669408  36.7920000 105.3399408  50.8529408  58.1340000
 104.7079408  51.5289408  57.8920000 106.1799408  51.1839408  57.8140000
 109.9039408  30.2909408  56.3150000 109.3069408  30.0529408  57.0240000
 110.2959408  31.1169408  56.5980000 116.3759408  53.1479408  52.1470000
 115.9069408  53.8409408  51.6830000 117.2419408  53.1299408  51.7400000
  98.6959408  34.9359408  56.2190000  98.5659408  34.8349408  57.1620000
  97.9669408  35.4869408  55.9330000  95.0549408  30.9999408  57.6170000
  95.2369408  31.8089408  57.1400000  94.9239408  30.3429408  56.9330000
 102.6159408  52.0489408  54.5270000 102.7129408  51.7699408  55.4380000
 103.1399408  51.4229408  54.0270000  94.7479408  56.4299408  32.0810000
  94.8309408  55.7089408  32.7050000  93.9279408  56.8609408  32.3190000
  99.2759408  56.4629408  44.7030000  99.7309408  56.2569408  45.5190000
  99.1089408  57.4049408  44.7520000 113.3719408  59.3539408  46.9710000
 113.3079408  58.3989408  46.9860000 112.9949408  59.6059408  46.1290000
 106.2559408  53.4489408  52.4580000 105.9049408  53.5529408  51.5740000
 105.4959408  53.5559408  53.0320000  96.9949408  45.9949408  50.7340000
  96.4209408  45.7369408  51.4560000  96.9939408  46.9519408  50.7580000
 106.4109408  57.9309408  46.0400000 106.7929408  58.4529408  46.7440000
 106.9819408  58.0879408  45.2870000 104.1419408  54.1589408  54.0840000
 103.6309408  53.3779408  54.2940000 103.5819408  54.6599408  53.4910000
 103.5379408  46.9969408  52.3460000 104.1009408  46.3869408  52.8230000
 103.4289408  46.5979408  51.4830000 103.4829408  49.4799408  53.5240000
 103.6019408  48.6709408  53.0260000 104.1959408  49.4769408  54.1620000
  95.5179408  50.8639408  30.6340000  94.6129408  50.9029408  30.3240000
  95.8689408  51.7369408  30.4600000  93.9199408  53.7329408  57.9040000
  93.7749408  52.7969408  57.7640000  94.6069408  53.7729408  58.5690000
 113.3409408  55.3679408  56.2690000 113.8739408  55.7849408  55.5910000
 112.6439408  55.9989408  56.4470000 111.0999408  57.1969408  56.2780000
 110.7519408  57.3389408  55.3980000 111.3499408  58.0699408  56.5810000
 104.6979408  55.7839408  49.6430000 104.8279408  55.7939408  48.6940000
 104.6369408  54.8559408  49.8670000  95.6269408  55.5319408  52.0670000
  96.1349408  55.9269408  51.3580000  95.2669408  54.7309408  51.6870000
  98.4599408  32.5539408  54.9290000  98.0919408  31.8119408  55.4080000
  98.4689408  33.2689408  55.5650000  93.5699408  50.9729408  57.9310000
  92.6959408  50.8599408  57.5580000  94.1639408  50.6609408  57.2500000
 114.5209408  47.0009408  52.3890000 115.1209408  46.3069408  52.6620000
 113.6929408  46.7869408  52.8180000 101.6979408  50.0789408  59.7730000
 100.8099408  49.8989408  59.4640000 102.0089408  49.2409408  60.1130000
 100.6369408  51.0749408  45.7480000 101.0509408  50.3259408  46.1760000
 100.8889408  50.9959408  44.8280000  98.0119408  55.6129408  59.1090000
  97.3469408  55.9979408  59.6800000  97.5689408  55.4959408  58.2690000
 106.3829408  55.0279408  46.5230000 105.9809408  54.9789408  45.6560000
 106.6939408  55.9299408  46.5930000  89.8979408  55.6919408  52.9550000
  89.7849408  54.8959408  53.4740000  90.8379408  55.7319408  52.7780000
  98.7329408  55.2859408  32.7840000  99.4529408  55.3559408  32.1580000
  98.2929408  56.1349408  32.7390000 116.7709408  33.6649408  52.7270000
 116.7729408  32.8369408  53.2070000 117.3549408  34.2339408  53.2270000
  95.4859408  47.0279408  55.4590000  95.3769408  46.1209408  55.7470000
  96.3439408  47.2849408  55.7970000  99.9189408  33.5539408  51.8240000
  99.1149408  33.4609408  52.3350000 100.5089408  32.8899408  52.1800000
  98.4839408  42.6569408  42.7750000  98.7579408  43.2109408  42.0450000
  99.2489408  42.1129408  42.9640000  94.8689408  52.0059408  34.4930000
  95.4839408  52.3369408  33.8380000  95.3879408  51.9349408  35.2950000
  91.1839408  53.8679408  32.2820000  91.7039408  53.3719408  31.6500000
  91.6219408  53.7219408  33.1200000  91.2759408  50.9209408  52.3260000
  91.5259408  50.2529408  51.6880000  91.9619408  51.5849408  52.2600000
  97.4129408  56.2019408  50.0570000  97.4249408  56.6489408  49.2110000
  98.2419408  56.4469408  50.4690000 100.8449408  32.1909408  58.1290000
  99.9649408  31.9919408  57.8090000 100.7209408  32.4099408  59.0520000
 102.1609408  51.0939408  57.1720000 101.3539408  51.5889408  57.0280000
 102.4389408  51.3399408  58.0540000 111.6459408  55.8579408  49.2480000
 111.8839408  55.4889408  48.3980000 111.1379408  55.1669408  49.6750000
  91.9099408  56.0429408  56.4380000  91.0299408  56.3809408  56.2760000
  91.8099408  55.4669408  57.1960000 116.5009408  53.4099408  33.8900000
 117.2679408  53.2959408  33.3290000 116.1529408  54.2679408  33.6490000
  96.9049408  59.6589408  54.4020000  97.4049408  59.1249408  55.0190000
  97.5369408  59.8999408  53.7250000 105.8789408  32.1039408  51.6990000
 105.5149408  31.9559408  52.5720000 106.7829408  31.7959408  51.7610000
  98.8949408  51.6709408  49.8570000  98.2309408  51.5909408  49.1720000
  98.9859408  50.7849408  50.2080000 109.3409408  49.3989408  50.3370000
 109.0289408  49.1119408  49.4790000 108.5439408  49.5879408  50.8320000
 104.5349408  33.3569408  58.7370000 104.1719408  32.4879408  58.5610000
 105.0539408  33.5609408  57.9590000 107.1019408  45.7249408  55.9070000
 107.7749408  46.4049408  55.8650000 106.2939408  46.1989408  56.1020000
 103.0649408  31.5539408  50.0000000 103.9649408  31.6039408  50.3230000
 102.9399408  30.6309408  49.7800000  98.2529408  31.2669408  58.1430000
  97.5959408  31.4079408  58.8250000  98.1889408  30.3329408  57.9390000
 100.1359408  52.0139408  53.1660000 100.2959408  52.4989408  52.3560000
 100.9959408  51.9489408  53.5810000 108.4869408  38.0279408  31.6070000
 109.1999408  38.3819408  32.1380000 108.0509408  38.7999408  31.2450000
 105.1319408  47.2609408  56.3960000 105.2409408  47.6919408  57.2440000
 104.5449408  46.5269408  56.5740000  97.2789408  56.4109408  56.2950000
  96.3539408  56.2849408  56.0820000  97.7199408  56.4259408  55.4460000
 104.4529408  50.9099408  33.7780000 104.3679408  50.7669408  32.8350000
 105.0229408  50.2019408  34.0770000  97.1399408  57.5469408  47.6840000
  96.8289408  57.2759408  46.8200000  96.5409408  58.2459408  47.9460000
 115.0939408  33.0129408  55.4040000 114.7599408  32.6939408  54.5660000
 115.6369408  32.2969408  55.7340000 105.7979408  58.7229408  33.2530000
 105.6619408  57.7969408  33.0530000 105.1299408  59.1799408  32.7420000
  99.0859408  31.1759408  31.1750000  98.4019408  30.5059408  31.1510000
  98.6729408  31.9539408  30.8020000  98.0329408  59.1679408  40.5370000
  98.6119408  58.8459408  41.2270000  97.5109408  59.8489408  40.9610000
 102.8329408  46.8609408  43.8650000 102.4649408  45.9809408  43.9370000
 102.1939408  47.3459408  43.3420000  98.4229408  58.5869408  57.7970000
  98.0969408  58.0029408  57.1120000  98.0209408  58.2599408  58.6020000
 103.1219408  45.2349408  56.3590000 102.9999408  44.2859408  56.3360000
 103.2029408  45.4879408  55.4390000  95.5019408  30.1759408  50.8970000
  95.1519408  30.8029408  51.5300000  95.3639408  29.3209408  51.3060000
 104.6709408  37.7959408  35.3550000 105.3629408  37.6749408  34.7050000
 104.3999408  36.9069408  35.5840000 102.2429408  36.3459408  37.8770000
 103.0639408  35.9189408  37.6340000 101.5769408  35.9019408  37.3520000
 100.7739408  36.2109408  59.9660000 101.1209408  36.8889408  60.5450000
 100.1539408  36.6719408  59.4000000 114.9609408  45.1169408  36.4150000
 114.0719408  45.3439408  36.1410000 115.4919408  45.8699408  36.1570000
 109.3769408  37.5459408  42.7920000 109.5639408  37.9789408  41.9590000
 108.9799408  38.2279408  43.3340000 119.9389408  42.9329408  50.1570000
 119.2409408  43.5489408  49.9330000 119.5489408  42.0699408  50.0180000
 113.4369408  38.0999408  44.6000000 113.0629408  38.4679408  43.7990000
 113.0709408  37.2169408  44.6520000 117.4789408  33.9939408  40.6530000
 117.3369408  34.2939408  39.7560000 117.7139408  33.0699408  40.5640000
 113.8419408  37.9109408  41.1330000 113.2649408  38.4849408  40.6300000
 114.5029408  37.6239408  40.5030000 114.1399408  31.3499408  40.9420000
 113.2239408  31.4689408  41.1920000 114.1099408  30.7419408  40.2040000
 112.8249408  51.8459408  59.9020000 113.1099408  51.1609408  60.5080000
 113.3979408  51.7459408  59.1420000  90.0609408  36.7279408  47.5830000
  90.7789408  37.3319408  47.7720000  89.7179408  37.0209408  46.7390000
 109.3879408  42.0239408  31.7080000 108.4449408  42.1189408  31.5730000
 109.5609408  41.0969408  31.5410000 108.6229408  34.8899408  42.5080000
 109.1929408  34.4829408  41.8550000 108.9969408  35.7609408  42.6440000
 118.2209408  53.3229408  44.8680000 117.5639408  53.4529408  44.1850000
 119.0359408  53.1649408  44.3900000 117.7609408  32.7849408  33.9490000
 118.2159408  32.0179408  33.6010000 117.0409408  32.9349408  33.3370000
 105.8699408  37.0169408  30.6600000 105.2029408  36.8519408  31.3270000
 106.4569408  37.6569408  31.0610000 109.5339408  47.2399408  56.6460000
 110.2919408  46.8729408  56.1910000 109.5379408  46.8119408  57.5020000
 115.9399408  35.4359408  44.7680000 116.1589408  35.8389408  43.9280000
 115.7629408  34.5199408  44.5560000 115.4509408  36.9699408  35.4990000
 114.8859408  36.2069408  35.3780000 115.7639408  37.1789408  34.6180000
  90.4629408  52.8909408  43.2580000  90.2129408  51.9829408  43.0880000
  91.3599408  52.8359408  43.5870000 104.7979408  41.2589408  50.4950000
 104.1209408  41.7319408  50.0110000 105.3779408  41.9449408  50.8280000
 108.4659408  53.8039408  39.1880000 108.8379408  54.6159408  38.8460000
 108.9149408  53.1109408  38.7040000 106.7079408  37.0059408  33.8860000
 107.1969408  37.5149408  33.2390000 106.7849408  36.0999408  33.5860000
  95.6159408  33.9159408  47.9620000  96.1299408  33.4149408  48.5940000
  95.1099408  33.2559408  47.4870000 115.2969408  35.6169408  49.7390000
 116.1719408  35.2819408  49.5430000 114.9219408  35.8239408  48.8830000
 100.5079408  37.1349408  50.9140000 101.3479408  36.7929408  50.6060000
 100.6289408  37.2549408  51.8560000  95.4309408  38.9249408  43.3460000
  94.5449408  38.8439408  43.6980000  95.4069408  39.7229408  42.8170000
 119.5329408  30.6999408  33.3760000 120.1959408  30.7629408  32.6890000
 119.1429408  29.8339408  33.2540000 109.1209408  41.3209408  43.8360000
 108.7309408  41.3989408  42.9650000 108.7629408  42.0599408  44.3270000
 113.4509408  46.6139408  47.9200000 113.0099408  47.2459408  47.3520000
 112.8429408  46.4799408  48.6470000  91.2429408  55.3819408  41.0890000
  91.8839408  54.7989408  40.6820000  90.4409408  54.8619408  41.1370000
  90.5589408  33.4369408  32.1060000  90.9039408  33.9419408  31.3700000
  89.6199408  33.3699408  31.9320000 115.4529408  53.0009408  36.3470000
 116.1639408  52.5919408  36.8410000 115.8259408  53.1649408  35.4810000
 109.8289408  42.1619408  34.8400000 110.2879408  42.3219408  35.6640000
 109.5549408  43.0299408  34.5450000 108.0169408  37.0069408  57.2190000
 107.3259408  36.5609408  57.7080000 108.0999408  36.5049408  56.4080000
 115.5609408  41.1319408  45.4750000 115.1189408  40.5969408  46.1340000
 114.8589408  41.6419408  45.0700000  91.6959408  44.5629408  35.6540000
  91.0739408  44.5129408  34.9270000  91.7619408  43.6639408  35.9750000
 116.7429408  33.6139408  47.8620000 116.4659408  34.0829408  47.0750000
 116.0469408  32.9769408  48.0200000 111.6259408  49.4869408  31.2030000
 112.4039408  49.0829408  31.5860000 111.3859408  50.1789408  31.8190000
 109.8959408  37.7829408  59.2340000 109.4559408  37.5179408  58.4260000
 109.2739408  37.5689408  59.9280000 119.2179408  53.7659408  35.8380000
 119.3659408  54.3189408  35.0710000 119.4309408  52.8809408  35.5410000
 111.2669408  30.7559408  38.5830000 111.3999408  31.0999408  39.4660000
 110.5919408  30.0849408  38.6870000 114.1839408  34.4299408  59.2750000
 113.9199408  35.0219408  58.5710000 113.4349408  34.4179408  59.8720000
 117.0209408  30.6149408  53.3560000 116.1119408  30.3729408  53.1770000
 117.4589408  29.7839408  53.5400000 117.0549408  50.3509408  43.5330000
 116.2059408  50.0659408  43.1960000 117.4329408  49.5649408  43.9270000
 113.3629408  35.0449408  41.8150000 113.7649408  35.8809408  41.5770000
 114.1039408  34.4649408  41.9930000 114.9759408  31.0289408  50.1130000
 114.6729408  31.3969408  49.2830000 114.4759408  31.4979408  50.7810000
 112.5319408  53.9129408  46.2690000 113.3199408  53.8259408  46.8050000
 112.8589408  54.0669408  45.3830000 116.3219408  37.4929408  53.9420000
 116.3019408  36.7529408  54.5480000 117.1049408  37.9849408  54.1900000
  90.1739408  41.8329408  41.6060000  90.4409408  41.6049408  42.4960000
  90.8999408  42.3529408  41.2630000 115.7369408  49.1459408  38.1800000
 114.8499408  49.1279408  38.5390000 116.1869408  48.4239408  38.6170000
 106.6539408  39.5689408  37.1000000 106.2859408  39.1019408  36.3490000
 107.5579408  39.2609408  37.1550000 108.3429408  55.7469408  36.0430000
 108.8659408  54.9999408  35.7510000 107.5969408  55.7659408  35.4440000
  94.7929408  55.8129408  35.2480000  94.3529408  56.6369408  35.4600000
  94.0799408  55.1949408  35.0880000 113.2419408  53.1659408  40.4920000
 112.9709408  53.7249408  39.7630000 112.5509408  52.5069408  40.5570000
 115.7379408  56.5139408  46.0000000 115.5399408  55.6189408  45.7260000
 114.8859408  56.8929408  46.2160000  90.0309408  36.3349408  37.2890000
  89.4529408  35.8939408  36.6650000  90.7089408  36.7369408  36.7450000
  95.4109408  31.6389408  44.1010000  96.3529408  31.5459408  43.9540000
  95.1199408  32.2449408  43.4200000 110.9789408  41.3509408  58.1040000
 111.4849408  40.7389408  58.6380000 111.4719408  41.4199408  57.2860000
 102.0409408  33.7889408  30.3090000 101.4489408  34.5119408  30.1020000
 102.7159408  33.8299408  29.6310000 114.4599408  32.0869408  47.5660000
 114.6979408  32.1839408  46.6440000 113.9199408  31.2969408  47.5930000
  98.5499408  34.3989408  49.4280000  99.1569408  34.0959408  50.1040000
  97.8149408  33.7869408  49.4750000 117.6739408  37.2299408  58.4930000
 118.1929408  38.0039408  58.2730000 117.5139408  36.7999408  57.6530000
 111.2339408  31.7299408  41.0500000 111.0569408  31.7479408  41.9900000
 111.0979408  32.6329408  40.7630000 112.1169408  36.2239408  46.4610000
 111.5759408  36.8179408  46.9810000 111.6809408  36.1839408  45.6100000
 107.0459408  39.7769408  60.0950000 106.9329408  40.7139408  60.2500000
 107.3599408  39.7189408  59.1920000 117.9949408  31.5439408  39.2960000
 117.6689408  30.7739408  39.7610000 117.5859408  31.4939408  38.4320000
  94.1849408  49.2609408  45.5620000  93.2749408  49.4589408  45.3410000
  94.2369408  49.3929408  46.5080000 111.5719408  46.0879408  49.4610000
 111.2589408  46.5549408  50.2350000 112.0279408  45.3219408  49.8100000
 114.5889408  42.8039408  48.0590000 115.3309408  42.2919408  47.7360000
 114.9889408  43.5189408  48.5550000  92.6959408  34.0899408  51.8710000
  92.3059408  33.5869408  51.1560000  92.9999408  34.8979408  51.4560000
 119.8669408  52.4849408  53.7190000 120.5199408  52.0109408  53.2050000
 119.1229408  52.5889408  53.1250000 112.9719408  59.7709408  36.6800000
 112.3179408  60.1079408  37.2920000 113.6439408  59.3789408  37.2390000
 120.0319408  39.3559408  37.3470000 119.0959408  39.2539408  37.5190000
 120.1719408  38.9109408  36.5120000 102.1399408  37.4559408  42.2220000
 103.0799408  37.4309408  42.0430000 101.9669408  36.6499408  42.7080000
 112.2569408  42.3619408  41.4830000 111.7519408  43.1539408  41.2990000
 112.2079408  41.8529408  40.6740000 117.9939408  38.9349408  48.7130000
 118.8849408  38.7869408  49.0320000 117.4419408  38.4079408  49.2910000
 115.9349408  51.0989408  58.9360000 115.4299408  51.0179408  58.1280000
 116.4369408  51.9069408  58.8260000  92.6369408  38.9269408  38.6340000
  93.0599408  39.1289408  39.4690000  91.7709408  39.3279408  38.7010000
  91.9669408  38.2519408  48.4270000  92.8179408  38.6559408  48.5950000
  91.4089408  38.5619408  49.1400000 117.5039408  35.9579408  42.6760000
 117.6349408  35.1329408  42.2080000 117.4329408  36.6169408  41.9850000
  96.0659408  33.5049408  33.3350000  95.7129408  34.3689408  33.5490000
  95.3759408  33.0859408  32.8200000 110.1629408  33.2489408  37.1740000
 110.7889408  32.6829408  37.6270000 109.4289408  33.3299408  37.7820000
  95.8869408  40.2809408  35.3640000  95.6359408  40.8369408  36.1020000
  95.8729408  40.8659408  34.6070000 112.0509408  57.8479408  51.3780000
 112.2919408  57.3129408  50.6220000 112.4079408  58.7149408  51.1820000
 116.0049408  58.4509408  50.5770000 115.3879408  57.8689408  50.1320000
 115.6789408  59.3319408  50.3920000 105.9519408  45.9449408  30.6750000
 105.0699408  45.6069408  30.8280000 106.3909408  45.2529408  30.1800000
 112.1649408  37.7679408  38.6350000 113.0789408  37.4839408  38.6030000
 112.1279408  38.5239408  38.0490000 114.3869408  40.8979408  37.2380000
 114.6949408  41.3449408  38.0260000 115.0989408  41.0059408  36.6070000
 110.4669408  57.5979408  46.5020000 110.0149408  58.4079408  46.7400000
 109.9129408  56.9009408  46.8520000 107.1799408  54.4859408  41.5940000
 107.1339408  54.0919408  40.7230000 107.8769408  55.1389408  41.5260000
 117.1109408  37.9229408  40.7590000 116.6699408  38.6599408  41.1820000
 117.2859408  38.2279408  39.8680000 114.4309408  38.2329408  30.1660000
 114.9999408  38.8329408  29.6840000 114.9499408  37.9689408  30.9260000
 117.6649408  47.8339408  50.4340000 117.0099408  47.9209408  51.1270000
 117.7929408  48.7259408  50.1110000 110.4459408  35.7249408  35.9510000
 110.6899408  34.9389408  36.4390000 111.2809408  36.0999408  35.6680000
  94.0989408  47.2339408  50.9040000  93.5579408  47.6299408  50.2210000
  94.7849408  47.8809408  51.0720000 113.0409408  55.6989408  37.7480000
 112.2169408  56.1149408  37.4950000 113.0589408  54.8799408  37.2530000
 105.0709408  33.1099408  41.9730000 105.9309408  32.7019408  41.8700000
 104.5769408  32.4959408  42.5170000  91.2549408  36.8109408  44.1630000
  90.3669408  36.7379408  44.5100000  91.5479408  37.6809408  44.4330000
  91.2039408  48.3319408  38.1590000  91.7869408  48.4599408  38.9080000
  90.4139408  47.9419408  38.5330000 100.8509408  48.0429408  50.5640000
 101.5169408  47.8769408  49.8970000 100.6929408  47.1879408  50.9640000
 115.3289408  43.5029408  41.5810000 115.0329408  44.2309408  42.1270000
 116.1189408  43.1829408  42.0170000 117.1119408  57.8559408  44.3000000
 116.6299408  57.3489408  44.9530000 118.0099408  57.8809408  44.6300000
 114.7879408  32.1149408  35.8990000 114.1839408  31.3719408  35.9120000
 115.6579408  31.7159408  35.9040000 109.4179408  45.1679408  46.0930000
 110.2329408  44.6729408  46.0060000 109.6999408  46.0539408  46.3210000
 117.7659408  43.5989408  33.8470000 117.7389408  43.8419408  34.7720000
 117.9009408  44.4269408  33.3850000  95.1689408  44.5189408  46.3780000
  95.8409408  44.4369408  47.0540000  94.4199408  44.9079408  46.8290000
 112.8469408  44.3839408  59.2860000 113.0729408  45.2939408  59.4810000
 112.3399408  44.4319408  58.4760000 114.5049408  33.7859408  38.3370000
 114.6659408  33.1259408  37.6630000 115.3689408  33.9629408  38.7110000
 117.8919408  45.9599408  31.8140000 117.0629408  45.4949408  31.6950000
 118.2699408  46.0039408  30.9360000 111.4209408  35.9589408  43.7260000
 110.7449408  36.4539408  43.2630000 112.0389408  35.6999408  43.0420000
  94.4059408  40.8699408  31.0480000  93.6999408  41.4429408  31.3470000
  95.1239408  41.0339408  31.6600000 107.9489408  47.1749408  41.2960000
 107.9059408  46.2389408  41.0990000 108.8179408  47.2979408  41.6800000
 115.4809408  41.9639408  39.4060000 115.1199408  42.5119408  40.1030000
 116.2799408  41.5939408  39.7810000 117.2379408  34.9699408  38.0610000
 117.3909408  35.8909408  38.2740000 117.5609408  34.8749408  37.1650000
 114.1389408  38.9709408  54.3760000 113.4629408  38.4299408  53.9690000
 114.9209408  38.4189408  54.3760000 106.7859408  48.4209408  31.6810000
 106.7219408  47.5299408  31.3370000 107.4129408  48.8559408  31.1040000
 112.8489408  43.5719408  49.9600000 113.5609408  43.2709408  49.3950000
 112.1069408  43.0129408  49.7290000 113.2589408  30.4689408  44.2250000
 113.7039408  29.7619408  43.7580000 113.9489408  31.1049408  44.4120000
  98.5139408  48.9249408  34.6940000  98.4449408  47.9949408  34.9100000
  97.8739408  49.0569408  33.9950000  90.9149408  42.1979408  33.5130000
  90.7669408  42.8599408  32.8380000  90.2449408  41.5339408  33.3490000
 106.2619408  35.6629408  41.8050000 107.1559408  35.3529408  41.9450000
 105.7269408  34.8699408  41.8260000 115.2609408  32.5219408  45.1500000
 116.1599408  32.1979408  45.2140000 115.1129408  32.6349408  44.2110000
 116.0369408  39.7699408  42.4210000 116.3529408  39.1019408  43.0300000
 115.0999408  39.8379408  42.6050000 113.0209408  38.4339408  33.5050000
 113.2149408  39.3699408  33.4500000 113.4379408  38.1499408  34.3190000
 108.3969408  31.7669408  34.5070000 108.1719408  31.0319408  35.0770000
 109.3529408  31.8069408  34.5340000 117.9889408  39.2129408  55.4190000
 118.5799408  39.2639408  56.1700000 117.4759408  40.0199408  55.4620000
 119.4079408  50.4649408  42.4830000 118.5159408  50.4729408  42.8300000
 119.2959408  50.4509408  41.5330000 109.9099408  38.3669408  40.0660000
 109.9099408  39.2509408  39.6990000 110.6139408  37.9149408  39.6030000
 112.6919408  41.3699408  56.1520000 112.7639408  40.5559408  55.6530000
 113.5839408  41.5479408  56.4510000 112.3429408  47.8229408  43.7280000
 112.4789408  48.5569408  44.3260000 111.4959408  47.9999408  43.3180000
 108.5539408  48.9259408  54.6820000 108.7939408  48.2999408  55.3660000
 109.3529408  49.4279408  54.5250000  90.9789408  41.7839408  36.4660000
  90.8059408  41.5689408  35.5490000  90.8379408  40.9619408  36.9360000
 108.5449408  36.2349408  38.9460000 108.6869408  36.3049408  38.0020000
 108.8589408  37.0669408  39.2990000 107.5829408  32.1169408  41.6990000
 107.5359408  31.9249408  42.6360000 107.4419408  31.2719408  41.2740000
 113.0879408  36.0449408  32.2860000 113.1179408  36.9629408  32.5550000
 112.5769408  36.0479408  31.4770000 109.4299408  59.0179408  30.8690000
 110.3869408  59.0099408  30.8630000 109.1899408  58.4979408  31.6360000
 113.0929408  34.5809408  56.6170000 113.7929408  34.1529408  56.1250000
 112.4559408  34.8409408  55.9520000 119.4029408  51.3029408  46.8030000
 119.1189408  52.1149408  46.3830000 120.2919408  51.4879408  47.1050000
 119.9999408  33.3119408  38.7350000 119.2879408  32.6869408  38.8720000
 119.6239408  34.1599408  38.9690000  97.9229408  30.9289408  37.0610000
  98.3859408  31.4039408  37.7510000  97.6119408  31.6119408  36.4670000
 116.0629408  36.2019408  32.8730000 116.7759408  36.4759408  32.2960000
 115.4759408  35.7009408  32.3070000 115.4119408  50.8149408  31.5320000
 115.4999408  50.9999408  30.5970000 116.2239408  50.3649408  31.7650000
 118.3659408  35.4669408  49.3010000 118.8039408  35.9929408  48.6320000
 118.0599408  34.6899408  48.8330000 103.7059408  30.8079408  58.7940000
 102.8089408  30.6749408  59.0990000 104.2449408  30.6919408  59.5770000
 110.9419408  34.3839408  47.7550000 110.5819408  33.9059408  47.0080000
 111.5239408  35.0359408  47.3640000 109.5519408  43.4549408  59.3200000
 109.6209408  42.9329408  60.1200000 109.9389408  42.9039408  58.6400000
 119.4049408  39.7769408  31.2160000 119.7829408  39.6169408  30.3520000
 118.8879408  38.9919408  31.4010000 113.8139408  46.7889408  59.7140000
 113.7769408  47.3819408  60.4640000 114.6549408  46.9789408  59.2980000
  92.6029408  46.3849408  57.6050000  92.3689408  46.0419408  56.7430000
  93.5349408  46.1849408  57.6980000 111.4199408  43.2069408  54.2540000
 111.6209408  42.3409408  54.6100000 111.2789408  43.0559408  53.3200000
 114.3839408  46.4509408  56.5200000 114.4989408  47.3369408  56.1780000
 114.0379408  46.5779408  57.4040000 119.1759408  40.3779408  52.4850000
 118.2839408  40.5879408  52.2080000 119.0939408  40.1619408  53.4140000
 117.5159408  41.6489408  48.8270000 117.5849408  40.6959408  48.7670000
 117.6049408  41.8379408  49.7610000 118.1189408  43.0759408  53.9840000
 118.7619408  42.6759408  54.5710000 117.4529408  43.4369408  54.5690000
  90.9759408  43.9229408  56.7960000  91.2779408  44.0099408  57.7000000
  91.7439408  43.6149408  56.3150000 114.1129408  31.7349408  58.1150000
 114.7809408  31.4299408  57.5010000 114.4059408  32.6089408  58.3730000
 111.7639408  43.3609408  32.3840000 111.7739408  43.7069408  31.4920000
 110.9559408  42.8499408  32.4340000  90.6829408  34.4809408  56.5800000
  90.8219408  34.3349408  55.6450000  90.8769408  35.4089408  56.7100000
 118.0309408  55.7699408  30.2010000 117.6519408  56.3839408  29.5710000
 118.7909408  56.2309408  30.5560000  92.9169408  40.2559408  52.9200000
  92.3259408  40.8239408  52.4250000  93.4999408  40.8599408  53.3800000
 111.1939408  34.9999408  54.4080000 110.3499408  35.2639408  54.7730000
 111.2559408  34.0639408  54.5980000 116.5439408  35.5789408  55.9390000
 115.8209408  34.9659408  55.8060000 117.3229408  35.0939408  55.6660000
 118.7599408  58.1839408  33.0480000 118.8759408  57.2849408  33.3560000
 119.4779408  58.3219408  32.4310000  92.6489408  37.0719408  53.3300000
  92.9159408  37.8839408  52.8980000  92.1039408  36.6239408  52.6820000
 112.4329408  54.4709408  30.8190000 111.6569408  54.3989408  31.3750000
 112.5059408  53.6149408  30.3970000 117.0089408  37.7539408  50.9100000
 117.1639408  37.5669408  51.8360000 116.1749408  37.3249408  50.7160000
  93.2349408  48.6979408  54.7910000  92.6099408  47.9739408  54.8150000
  94.0829408  48.2909408  54.9680000  95.1829408  45.2449408  58.7310000
  95.2499408  44.6459408  57.9880000  96.0909408  45.4169408  58.9820000
 109.5569408  49.2589408  34.7920000 109.8279408  48.5009408  34.2750000
 109.5719408  49.9889408  34.1730000 116.9399408  40.5709408  35.5480000
 117.2969408  41.4359408  35.7460000 117.5429408  40.2049408  34.9000000
 112.1869408  37.3489408  53.2340000 112.6329408  37.2299408  52.3960000
 111.9849408  36.4599408  53.5270000 113.0549408  56.8219408  45.9560000
 112.1179408  56.8199408  46.1500000 113.1779408  56.0819408  45.3610000
 116.0829408  44.9759408  52.9120000 116.8299408  44.5689408  52.4730000
 116.1679408  44.7089408  53.8270000  91.7139408  34.7479408  34.2270000
  91.3929408  34.3309408  33.4270000  91.0859408  34.4889408  34.9010000
 116.7119408  58.8939408  31.2240000 117.5319408  58.5429408  31.5710000
 116.3319408  59.3829408  31.9540000 114.2559408  53.5429408  48.3680000
 114.2759408  52.7569408  48.9150000 115.1489408  53.6239408  48.0320000
 117.4089408  58.0439408  58.3580000 116.8659408  58.5749408  58.9420000
 118.0689408  58.6529408  58.0260000  96.1619408  51.5309408  55.3790000
  96.6229408  52.3089408  55.0660000  96.8009408  50.8229408  55.2930000
 114.1759408  48.5089408  31.7660000 114.5339408  49.3739408  31.5650000
 114.8279408  48.1069408  32.3410000 115.2449408  45.1359408  49.2390000
 114.6809408  45.3399408  49.9860000 115.0279408  45.8009408  48.5860000
 117.8889408  32.9389408  30.7890000 117.1389408  32.3659408  30.9500000
 117.5709408  33.8159408  31.0000000 107.5889408  35.9449408  51.8650000
 107.9269408  35.0509408  51.9150000 108.2399408  36.4199408  51.3480000
 108.6329408  33.7929408  57.6990000 109.4459408  33.2949408  57.6140000
 108.5859408  34.0199408  58.6280000 119.2179408  41.7099408  56.2810000
 119.3859408  41.1539408  57.0420000 119.5759408  42.5639408  56.5240000
 110.0679408  36.6019408  50.6770000 110.4109408  35.7399408  50.4420000
 110.8469408  37.1369408  50.8290000 119.4139408  33.1659408  46.0720000
 119.2369408  32.3849408  46.5970000 118.9069408  33.8589408  46.4960000
 116.1419408  42.3979408  57.6270000 115.4329408  42.2329408  58.2480000
 116.9029408  42.5879408  58.1750000 107.8799408  37.6249408  54.1220000
 107.7579408  36.6759408  54.0920000 107.0159408  37.9709408  54.3480000
 111.5639408  45.6829408  55.4200000 112.2419408  45.5029408  56.0710000
 111.3869408  44.8329408  55.0160000 119.8499408  32.5939408  58.7080000
 119.3119408  32.9239408  59.4270000 119.7199408  33.2259408  58.0010000
 114.0009408  34.7069408  35.0710000 113.8849408  34.5229408  34.1390000
 114.2479408  33.8649408  35.4530000 118.6979408  34.9809408  53.9730000
 119.2289408  35.6649408  54.3820000 119.2709408  34.2149408  53.9480000
  92.5169408  33.7909408  58.9940000  92.3399408  34.7299408  59.0370000
  92.0049408  33.4829408  58.2460000  99.8899408  41.8059408  47.1790000
 100.2009408  41.2239408  47.8720000 100.1229408  41.3559408  46.3660000
  92.2539408  45.9619408  54.7120000  91.4929408  45.4689408  54.4070000
  93.0069408  45.4519408  54.4130000 110.1359408  46.2199408  58.9780000
 109.9219408  45.3049408  58.7990000 110.5769408  46.2019408  59.8280000
 110.0029408  39.2039408  53.4090000 110.8009408  38.6759408  53.4560000
 109.3039408  38.6049408  53.6730000 113.6059408  42.7209408  44.1930000
 113.3069408  42.6279408  43.2890000 113.8659408  43.6389408  44.2670000
 111.9269408  48.4589408  57.4240000 111.6859408  49.2179408  57.9550000
 111.2059408  47.8409408  57.5460000 110.6599408  50.6539408  58.5530000
 110.8069408  50.9329408  59.4560000 110.5649408  51.4699408  58.0610000
 113.0969408  37.0939408  50.7320000 113.5719408  37.7899408  50.2780000
 113.5829408  36.2959408  50.5220000  90.1209408  37.1739408  55.0360000
  91.0009408  37.3079408  54.6820000  89.6779408  38.0119408  54.9010000
 111.2829408  34.2129408  40.2370000 112.1709408  34.4309408  40.5200000
 110.9569408  35.0169408  39.8310000  95.2779408  41.5559408  37.5480000
  94.8449408  40.9229408  38.1220000  95.5749408  42.2489408  38.1370000
  96.0519408  36.0389408  42.9900000  96.7619408  35.9259408  42.3580000
  95.9799408  36.9859408  43.1040000 115.8779408  44.2189408  55.3820000
 115.9199408  43.5969408  56.1090000 115.3539408  44.9449408  55.7190000
 116.9689408  56.1229408  52.1750000 117.8909408  56.2139408  52.4190000
 116.8059408  56.8519408  51.5770000  90.5089408  39.7659408  43.8980000
  89.8269408  39.7809408  44.5700000  90.2249408  39.0889408  43.2830000
 112.0069408  43.9469408  46.1180000 112.6479408  43.3789408  45.6900000
 112.4899408  44.3509408  46.8390000 111.3509408  53.5839408  57.1550000
 112.0519408  54.1379408  56.8110000 110.8199408  54.1729408  57.6900000
  93.1369408  45.9089408  47.4420000  93.2879408  46.7359408  47.8990000
  92.3239408  46.0479408  46.9560000 114.1139408  33.7159408  51.1230000
 114.5879408  34.4759408  50.7840000 114.5419408  33.5189408  51.9560000
  89.8739408  39.2279408  57.4500000  90.4399408  39.4969408  56.7260000
  90.4529408  38.7489408  58.0430000 103.7419408  36.4529408  45.6390000
 104.2449408  36.8479408  44.9270000 103.4279408  37.1979408  46.1520000
 118.1879408  42.5169408  59.3490000 119.0379408  42.9559408  59.3450000
 118.2049408  41.9679408  60.1330000  93.9139408  44.3159408  50.0960000
  93.3239408  45.0459408  50.2810000  93.8699408  44.2069408  49.1460000
 109.3529408  39.0949408  49.9650000 108.9699408  39.8979408  50.3180000
 109.1119408  38.4159408  50.5960000 107.2159408  32.2419408  44.2630000
 107.4569408  31.6839408  45.0030000 106.9959408  33.0849408  44.6600000
  95.4609408  44.3169408  56.1370000  94.8509408  43.6819408  55.7600000
  96.2679408  43.8219408  56.2740000  96.1759408  33.6459408  53.8610000
  97.0319408  33.4339408  54.2340000  95.6269408  33.8449408  54.6190000
  90.6509408  44.1239408  53.5250000  89.7119408  43.9479408  53.5810000
  90.9809408  43.4709408  52.9080000  92.0539408  42.5049408  51.6720000
  92.7779408  43.0489408  51.3630000  91.3189408  42.7389408  51.1060000
 117.4739408  38.2959408  37.3770000 117.0789408  39.0559408  36.9490000
 117.4529408  37.6089408  36.7110000  94.6389408  38.2059408  30.3610000
  94.5499408  39.1419408  30.5400000  95.5799408  38.0399408  30.4160000
  93.5789408  35.2939408  44.7230000  94.2869408  35.7469408  44.2640000
  92.8469408  35.9109408  44.7040000 104.3679408  38.5949408  50.4910000
 104.4269408  39.5469408  50.5680000 104.3979408  38.4279408  49.5490000
  92.4339408  59.4479408  51.3220000  91.7669408  58.7629408  51.3040000
  92.1439408  60.0829408  50.6670000 109.6399408  47.0629408  51.6660000
 110.2749408  47.2579408  52.3550000 109.4069408  47.9179408  51.3040000
 117.1349408  42.3819408  51.4320000 116.3539408  41.8949408  51.6950000
 117.7049408  42.3559408  52.2000000  91.7099408  34.5589408  47.3620000
  91.2679408  34.1129408  46.6390000  91.0809408  35.2169408  47.6580000
  93.7859408  33.1389408  35.5410000  94.7399408  33.2159408  35.5740000
  93.5029408  33.8839408  35.0110000 112.3099408  40.3559408  51.7640000
 111.7209408  41.1059408  51.6740000 111.7629408  39.6659408  52.1410000
 118.6129408  50.5529408  50.3810000 119.2029408  50.8629408  51.0670000
 118.5069408  51.3039408  49.7970000 108.5159408  55.7009408  30.7170000
 108.6129408  56.6029408  31.0230000 109.1969408  55.5999408  30.0510000
 114.3199408  45.3179408  43.4330000 113.7379408  46.0469408  43.2200000
 114.8819408  45.6559408  44.1310000 112.5469408  45.5769408  34.2880000
 111.8889408  46.0879408  33.8160000 112.4899408  44.7009408  33.9070000
 109.5539408  30.0589408  47.2370000 109.8519408  30.3489408  46.3750000
 108.6799408  30.4369408  47.3290000 114.5779408  56.1839408  49.7680000
 115.3119408  55.7339408  49.3490000 113.8019408  55.8429408  49.3220000
 111.9709408  59.7309408  34.2900000 111.4919408  60.5529408  34.3860000
 112.2929408  59.5359408  35.1700000 109.7779408  53.9979408  43.5600000
 110.2779408  54.1409408  42.7560000 110.3799408  53.5269408  44.1360000
 106.2369408  32.5929408  37.0360000 106.4979408  31.7169408  36.7530000
 107.0569408  33.0199408  37.2820000 107.8549408  33.6489408  38.8230000
 108.0219408  34.5789408  38.9790000 107.6949408  33.2839408  39.6930000
 110.3289408  54.1079408  32.8240000 109.6049408  54.5969408  32.4350000
 110.2499408  54.2699408  33.7640000 111.6989408  30.0119408  49.4060000
 112.3109408  29.7979408  48.7010000 110.9559408  30.4209408  48.9620000
 117.1489408  51.4149408  38.1260000 117.0169408  51.9989408  38.8730000
 116.3659408  50.8649408  38.1090000 111.1139408  32.1109408  34.7390000
 111.1109408  32.6599408  35.5240000 111.5609408  32.6399408  34.0780000
 112.0079408  40.1399408  46.2200000 111.9829408  40.3189408  45.2790000
 112.8879408  39.7949408  46.3750000 106.6089408  48.0909408  43.3550000
 106.7289408  47.5009408  42.6110000 107.4469408  48.5439408  43.4390000
 117.8639408  47.4319408  39.3610000 117.7469408  47.2979408  40.3010000
 118.3079408  48.2779408  39.2930000  91.0329408  55.6039408  43.9710000
  90.2089408  55.2399408  44.2930000  91.2309408  55.0919408  43.1870000
  91.9339408  59.6879408  48.6420000  92.2469408  58.7839408  48.6550000
  91.5109408  59.7829408  47.7880000  91.1559408  48.4609408  50.0400000
  90.2709408  48.7809408  49.8660000  91.0349408  47.5459408  50.2950000
  92.0799408  58.3339408  33.5080000  91.6479408  58.7749408  32.7770000
  92.4669408  59.0439408  34.0210000 107.4589408  49.6149408  36.9330000
 106.5709408  49.2699408  37.0270000 107.7209408  49.3639408  36.0470000
 115.5019408  55.3549408  58.7860000 116.3499408  54.9159408  58.7100000
 115.0439408  55.1329408  57.9750000 116.6749408  47.5639408  43.5590000
 116.2789408  47.7839408  44.4030000 116.8119408  46.6169408  43.5990000
 109.9319408  53.5469408  35.4520000 109.4589408  52.7149408  35.4690000
 110.8459408  53.3059408  35.6030000 113.0439408  51.6259408  43.4910000
 112.5689408  51.6099408  42.6600000 113.9519408  51.4399408  43.2520000
 111.5259408  57.0239408  33.9340000 111.8329408  56.7029408  33.0860000
 111.8009408  57.9409408  33.9570000 112.5659408  53.1829408  36.2490000
 112.5139408  52.3989408  36.7960000 113.4839408  53.2299408  35.9820000
  92.7359408  53.2419408  51.7040000  92.8889408  53.6109408  50.8350000
  92.5469408  53.9999408  52.2570000 115.2289408  33.2469408  42.4100000
 114.8559408  32.6399408  41.7710000 116.0849408  33.4789408  42.0500000
  93.0529408  56.7679408  45.5720000  92.4119408  56.2939408  45.0430000
  93.1159408  57.6289408  45.1590000 114.1119408  51.8259408  33.7350000
 114.7569408  52.4489408  34.0690000 114.4369408  51.5849408  32.8680000
 115.3229408  46.5199408  33.7300000 115.4299408  45.8639408  33.0410000
 114.4889408  46.2979408  34.1450000  91.2079408  54.3789408  58.9760000
  90.7519408  53.5889408  59.2650000  92.1189408  54.1049408  58.8680000
 115.6729408  50.8899408  53.2500000 115.9379408  51.6929408  52.8020000
 115.0279408  50.4909408  52.6670000 118.0719408  45.0429408  44.1250000
 118.3279408  44.1539408  43.8810000 118.7059408  45.6059408  43.6790000
 111.4969408  47.6769408  38.9910000 110.6869408  47.9649408  39.4120000
 111.2069408  47.1699408  38.2330000 111.3089408  51.2979408  40.9070000
 110.3719408  51.3809408  41.0840000 111.3559408  50.9219408  40.0280000
 109.9409408  55.9629408  58.3800000 109.0549408  56.3189408  58.3170000
 110.3819408  56.2749408  57.5900000 112.7679408  49.3119408  47.3790000
 112.3009408  50.0629408  47.0110000 113.4259408  49.6989408  47.9570000
 109.7129408  51.5399408  37.5910000 109.1179408  50.8719408  37.2500000
 110.5109408  51.0599408  37.8100000 113.7039408  47.7479408  40.5130000
 114.1529408  46.9339408  40.2860000 112.9529408  47.7799408  39.9200000
 117.4709408  55.8359408  36.5070000 117.7579408  54.9329408  36.6370000
 117.3959408  55.9299408  35.5570000 117.1539408  55.2229408  48.8610000
 117.2309408  54.5909408  48.1470000 117.9429408  55.7599408  48.7930000
 118.9979408  45.2499408  47.3840000 118.6679408  45.0439408  48.2580000
 118.5579408  44.6249408  46.8080000 107.0249408  52.7099408  47.6690000
 106.8809408  52.0149408  47.0260000 106.7759408  53.5139408  47.2140000
 115.5159408  32.1409408  32.2740000 114.6969408  32.6339408  32.2290000
 115.2789408  31.3189408  32.7030000 117.8379408  46.4779408  34.9610000
 117.1649408  46.4449408  34.2810000 118.2269408  47.3489408  34.8720000
 108.1619408  41.4479408  48.1310000 108.1129408  41.6889408  49.0560000
 109.0279408  41.7449408  47.8520000 101.7949408  34.1809408  45.4660000
 101.0579408  34.3869408  46.0420000 102.4969408  34.7619408  45.7580000
 114.6279408  59.7129408  33.2650000 113.6809408  59.5999408  33.3410000
 114.9819408  59.3039408  34.0550000 114.1549408  58.4689408  38.6710000
 114.9869408  57.9959408  38.6860000 113.5239408  57.8559408  39.0480000
 117.6299408  58.3429408  37.5860000 117.5669408  57.3909408  37.5050000
 117.5549408  58.5079408  38.5260000 116.7179408  53.2369408  47.1170000
 117.0469408  53.5299408  46.2670000 116.4409408  52.3329408  46.9690000
 118.6429408  53.4169408  32.1320000 119.5469408  53.7219408  32.2000000
 118.2299408  54.0239408  31.5180000  90.8829408  45.8929408  50.9960000
  91.0199408  45.6469408  51.9110000  90.0429408  45.4959408  50.7640000
 119.7119408  57.0349408  48.1520000 119.5509408  57.4989408  47.3300000
 119.2639408  57.5589408  48.8150000  97.1339408  53.6299408  47.5170000
  96.9599408  54.4419408  47.0430000  97.4829408  53.0339408  46.8540000
  94.8129408  50.6049408  50.3340000  94.8989408  51.5329408  50.5520000
  94.8869408  50.1529408  51.1740000 115.3029408  56.0099408  41.7730000
 115.0519408  55.5969408  40.9470000 114.6769408  56.7259408  41.8830000
 105.4609408  53.4619408  33.0360000 105.9439408  53.2799408  32.2300000
 105.3659408  52.6069408  33.4560000 103.5109408  57.9189408  45.3630000
 104.4469408  57.8499408  45.5500000 103.2639408  57.0499408  45.0470000
 115.1669408  55.1589408  31.8110000 114.2559408  54.8679408  31.8270000
 115.3879408  55.2049408  30.8810000 111.1539408  57.1659408  36.5480000
 111.4189408  56.9389408  35.6570000 111.5359408  58.0299408  36.7000000
 106.0469408  34.5639408  45.7710000 106.0809408  34.5099408  46.7260000
 105.4529408  35.2939408  45.5940000  92.8799408  57.4629408  42.2670000
  92.0239408  57.0379408  42.2150000  93.2679408  57.3299408  41.4030000
 118.6919408  49.2009408  33.8620000 119.5599408  48.8229408  33.7170000
 118.1619408  48.8679408  33.1380000 117.3199408  48.8899408  31.5420000
 117.8129408  49.1749408  30.7720000 117.3469408  47.9339408  31.5040000
  90.1709408  55.8719408  33.6420000  90.6029408  55.3299408  32.9810000
  90.8439408  56.4929408  33.9200000 111.9069408  50.2649408  38.2860000
 111.7919408  49.3209408  38.3890000 112.4119408  50.3589408  37.4790000
 110.8209408  55.7819408  41.5460000 110.6039408  55.9449408  40.6280000
 110.7959408  56.6459408  41.9560000 117.3569408  31.1799408  36.2670000
 117.6309408  31.6629408  35.4870000 118.0139408  30.4909408  36.3660000
 108.4929408  50.8929408  41.3400000 108.2899408  50.2629408  40.6490000
 107.8709408  51.6069408  41.2050000 117.5929408  58.9229408  40.4380000
 117.4519408  59.3709408  41.2720000 118.5019408  58.6269408  40.4740000
  99.8979408  58.3239408  47.5680000 100.5479408  57.6229408  47.5210000
  99.0609408  57.8869408  47.4100000  90.6229408  55.0849408  49.8260000
  91.5509408  54.8679408  49.9130000  90.5909408  55.7159408  49.1080000
 102.2699408  46.4249408  58.7760000 102.9509408  47.0969408  58.8060000
 102.4539408  45.9319408  57.9760000 119.5049408  39.6089408  33.9390000
 119.2369408  39.4409408  33.0360000 120.3389408  39.1489408  34.0320000
 114.9399408  58.5519408  42.8940000 115.6679408  58.0659408  43.2810000
 115.3499408  59.3119408  42.4820000 116.2609408  50.5759408  46.5330000
 115.9599408  49.7359408  46.1870000 117.1519408  50.4039408  46.8380000
  90.9209408  59.9589408  39.9480000  91.4189408  59.3979408  39.3520000
  90.0779408  60.0829408  39.5120000  90.1289408  30.2789408  36.1440000
  90.1339408  30.2069408  35.1890000  90.6739408  29.5509408  36.4420000
 110.1059408  56.3139408  38.9570000 110.3829408  56.3689408  38.0430000
 109.8789408  57.2129408  39.1940000 113.6379408  59.1839408  57.3740000
 113.8629408  58.6559408  58.1400000 113.7149408  60.0889408  57.6760000
 107.8029408  31.4979408  32.0150000 107.8179408  31.3079408  32.9530000
 107.9959408  30.6579408  31.5970000 111.2849408  51.4409408  33.2030000
 112.1909408  51.6019408  33.4660000 110.9289408  52.3109408  33.0260000
 114.8339408  48.1349408  45.5300000 115.1179408  47.2749408  45.8380000
 114.2629408  48.4619408  46.2250000 115.9399408  53.0769408  40.1740000
 115.0409408  52.8989408  40.4490000 115.8779408  53.8789408  39.6550000
  97.8459408  34.6539408  58.8310000  98.2209408  34.7389408  59.7070000
  97.3629408  33.8279408  58.8550000  90.5509408  53.0329408  38.3860000
  90.1859408  53.4379408  37.6000000  89.8569408  53.1109408  39.0410000
 111.0919408  32.8469408  57.7180000 111.6289408  32.2659408  58.2570000
 111.7059408  33.5029408  57.3870000 109.0939408  55.2559408  47.6310000
 108.8449408  55.5209408  48.5160000 108.5189408  54.5169408  47.4310000
 114.6889408  56.4959408  53.9890000 115.4609408  56.4079408  53.4300000
 114.0209408  55.9579408  53.5630000 109.7889408  57.3129408  53.2930000
 110.5389408  57.1429408  52.7230000 109.6029408  58.2449408  53.1720000
 116.0789408  58.6559408  35.3270000 116.5179408  58.9459408  36.1270000
 116.5309408  57.8469408  35.0860000 111.9989408  57.5469408  31.0180000
 112.9239408  57.6119408  30.7810000 111.7279408  56.6889408  30.6910000
 107.6129408  50.7449408  33.2240000 107.4149408  49.8939408  32.8320000
 107.7729408  51.3209408  32.4770000 118.7029408  53.2359408  50.3090000
 119.5569408  53.6369408  50.1500000 118.0819408  53.8059408  49.8540000
 109.1839408  52.3919408  49.3730000 108.8759408  52.0519408  50.2130000
 108.3959408  52.4469408  48.8330000 118.9259408  49.3549408  59.1130000
 118.4939408  49.0299408  58.3230000 119.7449408  48.8629408  59.1590000
 112.4529408  52.8319408  54.3870000 113.2899408  53.2969408  54.4070000
 111.9209408  53.3219408  53.7600000 119.3329408  50.1069408  39.6110000
 120.1389408  50.5079408  39.2850000 118.7129408  50.1949408  38.8870000
 119.7389408  31.2499408  52.7270000 119.9719408  30.5979408  52.0660000
 118.7969408  31.1349408  52.8560000  91.4839408  50.5129408  56.1210000
  91.9909408  49.8839408  55.6070000  90.8779408  50.9039408  55.4910000
 116.4009408  40.1289408  59.6700000 116.3809408  40.6799408  60.4520000
 116.2529408  40.7369408  58.9450000 119.0999408  56.4319408  55.9860000
 118.5239408  56.4859408  56.7480000 118.5919408  55.9469408  55.3350000
 117.4289408  54.6289408  54.5640000 116.6139408  54.5409408  54.0710000
 117.3679408  53.9629408  55.2490000 116.4519408  48.2429408  53.9800000
 116.5979408  49.0739408  53.5290000 115.5169408  48.0689408  53.8690000
 116.6279408  35.1689408  60.1560000 115.8039408  34.7719408  59.8740000
 116.6229408  36.0389408  59.7570000  92.8429408  55.7119408  53.1490000
  93.7689408  55.4969408  53.0340000  92.8479408  56.5679408  53.5780000
 113.8769408  51.7659408  57.1800000 114.5629408  52.2469408  56.7180000
 113.0929408  52.3049408  57.0720000 118.0669408  45.0089408  50.1910000
 118.0739408  45.9439408  49.9830000 117.1889408  44.8459408  50.5340000
 116.0639408  47.5379408  58.8710000 116.7539408  46.9079408  58.6660000
 116.4249408  48.3839408  58.6060000 119.9059408  58.0329408  51.8660000
 119.3759408  58.3819408  52.5830000 120.0419408  57.1129408  52.0930000
 117.5559408  53.3009408  58.4550000 118.1949408  53.8009408  58.9620000
 118.0589408  52.9369408  57.7270000 117.8099408  47.9179408  56.6380000
 117.3599408  48.3039408  55.8870000 117.8709408  46.9859408  56.4280000
 110.8229408  50.4389408  54.5460000 111.4419408  51.1659408  54.6110000
 110.8099408  50.2179408  53.6140000 116.1169408  30.6769408  56.5390000
 115.8869408  30.0879408  55.8210000 116.9099408  30.2969408  56.9170000
 114.0979408  42.2559408  59.3850000 113.7049408  43.1289408  59.3770000
 113.3609408  41.6629408  59.5350000  93.7959408  32.6399408  31.5360000
  93.1589408  33.0979408  30.9870000  93.2689408  32.0539408  32.0780000
 119.0779408  52.0099408  56.4940000 119.7929408  51.5059408  56.8830000
 119.4689408  52.4279408  55.7270000 116.4579408  52.1029408  55.8250000
 117.2999408  51.6859408  56.0080000 116.1359408  51.6579408  55.0400000
 114.2699408  59.2149408  54.6630000 114.2869408  58.9489408  55.5820000
 114.4699408  58.4149408  54.1780000 109.3969408  52.8279408  55.2380000
 109.5079408  52.1059408  54.6190000 110.1119408  52.7199408  55.8640000
 110.7379408  33.9019408  50.2470000 110.8629408  33.9519408  49.3000000
 111.6089408  34.0529408  50.6130000 119.0199408  58.8129408  54.3330000
 119.8619408  59.1639408  54.6250000 118.8459408  58.0819408  54.9260000
 106.8359408  31.2099408  57.0900000 107.4759408  30.5949408  57.4500000
 107.1229408  32.0669408  57.4050000 116.1579408  56.4039408  33.9090000
 115.6669408  57.2129408  34.0520000 115.8099408  56.0549408  33.0890000
 113.6199408  54.9529408  52.0760000 112.8519408  54.5989408  51.6270000
 114.1499408  55.3379408  51.3780000 111.2529408  53.5169408  50.7880000
 110.5179408  53.0819408  50.3570000 110.8559408  53.9929408  51.5170000
  93.1729408  59.6979408  53.8650000  92.8949408  59.4999408  52.9710000
  93.6089408  60.5479408  53.7990000 114.4219408  39.4159408  50.1160000
 115.2529408  39.6309408  50.5400000 113.7539408  39.7569408  50.7110000
  92.7039408  51.1609408  30.5350000  91.8629408  51.6189408  30.5440000
  92.8899408  51.0209408  29.6060000 108.5739408  56.5729408  49.9790000
 109.3969408  57.0059408  50.2050000 107.9349408  56.9379408  50.5900000
 113.9579408  31.6669408  53.3620000 113.0839408  31.9459408  53.6370000
 114.0009408  30.7409408  53.6010000 118.8059408  46.1259408  59.0390000
 119.4149408  46.8549408  58.9240000 119.3669408  45.3549408  59.1220000
 113.5929408  50.4459408  36.1030000 114.4549408  50.0469408  36.2220000
 113.6239408  50.8299408  35.2270000 111.0189408  51.9559408  47.3460000
 110.6409408  52.0609408  48.2200000 111.4569408  52.7889408  47.1720000
 119.3579408  36.4659408  51.7420000 118.9689408  36.1709408  50.9190000
 119.0259408  35.8529408  52.3980000  95.0389408  50.2599408  53.3180000
  95.4329408  50.8059408  53.9980000  94.2329408  49.9279408  53.7140000
 114.5659408  57.9129408  59.5880000 114.9279408  57.0679408  59.3220000
 115.1819408  58.2429408  60.2420000 112.3159408  30.6029408  30.0200000
 112.8489408  30.3259408  30.7650000 112.9519408  30.8169408  29.3370000
  92.0639408  32.4419408  49.6400000  92.0359408  33.1009408  48.9460000
  91.3919408  31.8059408  49.3950000 106.0279408  59.2599408  48.5900000
 105.0909408  59.1729408  48.4130000 106.1359408  58.9249408  49.4800000
 110.3859408  54.2079408  53.2040000 110.0829408  55.1069408  53.3300000
 109.8389408  53.6859408  53.7910000  90.8689408  36.2169408  30.9050000
  91.1979408  36.6709408  30.1290000  91.6129408  36.1979408  31.5060000
  94.5629408  55.8619408  55.9740000  93.6279408  56.0279408  56.0910000
  94.7009408  54.9909408  56.3480000 100.0009408  56.2329408  51.9690000
 100.8279408  55.7619408  52.0740000 100.2609408  57.1449408  51.8330000
 103.1139408  59.2469408  48.1040000 103.4209408  58.6579408  47.4150000
 102.3449408  59.6749408  47.7280000  94.1209408  43.6749408  73.7610000
  94.0209408  44.4239408  74.3480000  94.6659408  43.0579408  74.2490000
 109.4019408  47.0039408  63.4620000 109.3069408  46.1259408  63.8320000
 108.6369408  47.1089408  62.8970000  96.9639408  57.2739408  64.1330000
  96.2589408  56.7169408  64.4630000  96.9889408  58.0129408  64.7410000
 111.1249408  31.1489408  81.7350000 110.9649408  30.2999408  81.3230000
 111.6349408  31.6379408  81.0890000  96.7109408  48.7099408  81.4700000
  96.3839408  49.3649408  82.0880000  97.6529408  48.8729408  81.4250000
 101.8849408  41.9679408  72.0810000 101.2899408  41.2449408  72.2800000
 102.7569408  41.5759408  72.1090000  95.8789408  36.9689408  68.7010000
  95.4139408  36.1719408  68.4480000  95.9029408  37.4959408  67.9020000
 105.1049408  47.8279408  75.6050000 104.2939408  47.6459408  75.1300000
 105.7899408  47.7719408  74.9380000  90.6359408  44.0729408  68.5360000
  89.8129408  44.3929408  68.1640000  90.9089408  43.3719408  67.9450000
 108.8559408  48.6129408  69.2840000 108.4689408  48.1719408  70.0410000
 108.1489408  49.1559408  68.9360000  99.0639408  38.6819408  77.8260000
  98.4579408  38.2489408  78.4280000  99.3939408  37.9759408  77.2700000
 101.2259408  41.3479408  65.7040000 100.6419408  41.7979408  66.3140000
 101.6789408  40.6969408  66.2400000 107.4669408  45.2269408  77.9080000
 107.9479408  45.1439408  78.7320000 108.1319408  45.1079408  77.2300000
 112.0799408  39.5039408  66.3360000 111.9909408  39.7379408  65.4120000
 112.7389408  40.1109408  66.6740000  95.6149408  43.6859408  68.9500000
  95.7649408  43.7169408  69.8950000  94.7539408  44.0859408  68.8300000
 119.3079408  48.9599408  75.2020000 119.6479408  49.5329408  75.8900000
 119.8979408  49.0979408  74.4610000 102.9309408  55.5519408  74.1980000
 103.8639408  55.3599408  74.1090000 102.5239408  55.1209408  73.4470000
 118.0369408  35.5629408  65.5490000 117.0969408  35.6829408  65.4130000
 118.2159408  34.6789408  65.2300000 108.3629408  51.3589408  60.6810000
 107.7089408  52.0489408  60.5670000 108.2789408  50.8169408  59.8970000
 100.6849408  45.9839408  66.6650000 101.1339408  46.8249408  66.7490000
  99.8769408  46.0929408  67.1670000 118.7999408  39.9389408  75.7730000
 117.8609408  39.9999408  75.5990000 118.8569408  39.5959408  76.6650000
  92.3889408  50.7699408  63.8460000  93.1819408  51.3059408  63.8470000
  92.6729408  49.9199408  64.1820000 107.9779408  44.4559408  70.6650000
 107.2519408  44.3639408  70.0480000 107.7039408  43.9559408  71.4340000
 103.5299408  44.6779408  60.5350000 102.9009408  43.9769408  60.7060000
 103.0779408  45.2629408  59.9270000 106.9329408  52.0279408  73.3670000
 107.2779408  52.9039408  73.1980000 107.6629408  51.4399408  73.1730000
 101.7599408  53.1179408  68.5430000 101.6899408  53.8819408  67.9720000
 102.0759408  52.4179408  67.9710000 104.5309408  56.0489408  61.8910000
 105.1549408  56.0429408  61.1650000 104.9719408  55.5639408  62.5890000
  91.5889408  37.8679408  65.1380000  91.9129408  37.0799408  64.7030000
  92.3749408  38.2939408  65.4810000  94.3779408  31.6949408  76.6380000
  93.4469408  31.8319408  76.4640000  94.7679408  31.5709408  75.7730000
 105.1549408  30.6799408  68.8720000 104.7649408  31.4279408  68.4200000
 105.0899408  29.9599408  68.2450000 105.4189408  44.0349408  73.0950000
 104.8099408  43.9809408  73.8320000 104.8679408  44.2559408  72.3440000
  96.8749408  56.9259408  69.7580000  97.0919408  57.8089408  70.0560000
  97.0169408  56.9499408  68.8120000 118.5349408  45.5709408  67.6430000
 118.4489408  46.1489408  66.8850000 118.1879408  46.0809408  68.3750000
  98.3539408  36.3839408  63.5020000  99.0179408  36.9059408  63.0520000
  97.9879408  36.9769408  64.1590000 114.3849408  39.4109408  77.3650000
 114.7209408  38.5179408  77.2950000 114.2909408  39.5589408  78.3060000
  97.7939408  43.7699408  67.0920000  97.1589408  43.5089408  67.7590000
  98.3649408  43.0079408  66.9930000  99.0859408  32.8069408  72.3010000
  99.2659408  33.2629408  71.4790000  99.7729408  33.1059408  72.8980000
 105.8509408  43.9929408  69.0110000 105.1649408  44.5659408  68.6690000
 105.4019408  43.1709408  69.2080000  97.6489408  47.3009408  72.5020000
  97.1329408  47.8939408  73.0490000  97.6139408  46.4609408  72.9600000
 112.4549408  33.6049408  62.6640000 111.6819408  33.5749408  62.1000000
 112.7979408  34.4919408  62.5530000 111.2289408  50.5009408  74.9470000
 110.8759408  51.0379408  75.6570000 111.9479408  51.0209408  74.5870000
 101.1919408  56.2969408  61.5580000 101.2509408  57.2469408  61.6600000
 101.6389408  55.9449408  62.3270000  94.6869408  33.6109408  72.3470000
  93.8339408  33.9499408  72.0730000  95.2309408  34.3909408  72.4540000
 101.3659408  50.8169408  72.9800000 101.3449408  51.5859408  72.4090000
 102.2869408  50.5579408  72.9990000 105.5709408  34.5019408  83.2080000
 106.1229408  35.1429408  82.7600000 105.2669408  33.9189408  82.5130000
 104.5329408  49.5259408  67.8070000 104.0209408  48.9609408  68.3850000
 103.9069408  50.1799408  67.4950000  94.9169408  44.0799408  66.0540000
  95.2429408  43.2809408  66.4690000  94.3959408  44.5079408  66.7330000
 101.9419408  34.9309408  78.4310000 102.8109408  35.3169408  78.3240000
 101.7659408  34.9919408  79.3700000  92.9999408  53.7209408  64.9930000
  92.5599408  53.1309408  65.6050000  93.7909408  53.2499408  64.7310000
  99.3909408  35.9979408  73.5600000  98.4679408  35.8209408  73.7410000
  99.5449408  35.6099408  72.6990000  96.4589408  49.0469408  74.2110000
  95.7969408  48.9559408  74.8960000  97.0899408  49.6709408  74.5690000
 102.7269408  34.7419408  73.0350000 103.5559408  34.2759408  72.9230000
 102.3699408  34.4009408  73.8560000 100.9189408  45.5149408  71.9010000
 100.0709408  45.1079408  71.7250000 100.7289408  46.4519408  71.9560000
 101.2779408  38.6519408  69.3500000 101.3409408  37.9429408  69.9910000
 100.6729408  39.2789408  69.7440000  97.3769408  58.8119408  61.6800000
  96.6809408  58.2869408  61.2850000  97.2869408  58.6599408  62.6210000
 105.6899408  48.6069408  64.5490000 105.8669408  48.6029408  63.6090000
 106.2479408  47.9129408  64.9010000  96.0069408  30.8799408  64.4630000
  96.8559408  30.4709408  64.2940000  96.1609408  31.8149408  64.3310000
  99.4119408  38.7209408  66.5640000  99.9009408  38.4549408  67.3430000
 100.0189408  39.2819408  66.0810000 100.9679408  48.3959408  75.9660000
 101.6029408  47.8829408  75.4660000 100.1389408  47.9329408  75.8490000
  99.0729408  40.0809408  69.9790000  99.3089408  40.3209408  70.8750000
  98.1399408  39.8699408  70.0250000  98.6629408  53.0849408  65.7270000
  99.1639408  52.7029408  66.4480000  99.3049408  53.2099408  65.0280000
 102.1909408  33.0269408  66.6490000 102.5829408  33.5069408  67.3790000
 102.8259408  32.3399408  66.4440000  92.7639408  40.3209408  75.9390000
  92.1979408  40.7929408  75.3280000  92.1579408  39.8679408  76.5260000
  93.7929408  35.9289408  78.5460000  94.5359408  35.3939408  78.2680000
  93.0419408  35.5539408  78.0850000  97.2649408  35.4869408  70.7700000
  96.6499408  36.0649408  70.3180000  97.6409408  34.9459408  70.0760000
  94.4899408  34.3149408  68.6110000  93.8189408  33.6769408  68.8510000
  94.7519408  34.0669408  67.7250000 108.2059408  41.1969408  71.0920000
 108.7899408  41.1579408  70.3350000 107.3289408  41.0939408  70.7250000
 102.6159408  32.7419408  62.6460000 102.2479408  33.1119408  61.8440000
 103.2749408  33.3789408  62.9240000  93.9959408  40.0319408  79.2360000
  94.7059408  39.4889408  78.8920000  94.1359408  40.8909408  78.8370000
 103.6049408  39.6929408  63.1680000 104.0819408  38.9459408  63.5280000
 104.2209408  40.4239408  63.2310000 100.6809408  41.2849408  60.4750000
 100.9629408  41.9649408  59.8630000 100.5939408  41.7389408  61.3140000
  96.1979408  58.7859408  67.3920000  95.6229408  59.3219408  67.9370000
  96.9389408  59.3569408  67.1890000 105.6389408  36.6119408  68.9870000
 105.6199408  36.6119408  69.9440000 106.5409408  36.8459408  68.7660000
 106.1629408  50.3279408  69.8410000 105.8969408  50.1039408  68.9500000
 105.7949408  49.6309408  70.3840000 108.8369408  49.6889408  73.6890000
 109.6529408  49.8079408  74.1740000 109.0429408  49.9709408  72.7980000
  97.3569408  44.9479408  74.1060000  96.7409408  44.6609408  74.7800000
  97.7119408  44.1349408  73.7450000 112.1589408  41.9809408  68.6940000
 112.2029408  42.9319408  68.6020000 112.8179408  41.6489408  68.0840000
  91.5759408  31.8369408  72.3790000  91.6699408  31.3979408  71.5340000
  91.7809408  32.7539408  72.1980000  99.7979408  43.5629408  80.7020000
  99.9119408  42.6129408  80.6900000 100.2249408  43.8659408  79.9000000
 102.6309408  43.1459408  74.3340000 102.2629408  43.3379408  73.4710000
 102.9819408  42.2589408  74.2530000 100.1429408  38.5439408  62.9460000
 100.7999408  38.6049408  62.2530000 100.5939408  38.8529408  63.7320000
  94.7069408  45.4199408  83.1280000  94.5639408  45.8999408  82.3120000
  94.9709408  46.0909408  83.7570000  92.9149408  46.4549408  74.3630000
  93.5279408  47.1049408  74.7050000  92.2449408  46.3749408  75.0420000
  99.9729408  31.6209408  69.1660000 100.8859408  31.7839408  68.9290000
 100.0159408  31.2549408  70.0490000 102.5159408  39.3919408  67.0440000
 102.9239408  38.9559408  66.2950000 102.6179408  38.7729408  67.7670000
 110.6819408  44.5549408  70.8580000 110.4699408  44.9719408  71.6930000
 109.8309408  44.3559408  70.4670000  95.0659408  42.1979408  78.1450000
  95.8319408  41.7159408  77.8330000  94.6889408  42.5859408  77.3550000
  94.4699408  36.9909408  81.0950000  94.3759408  36.7169408  80.1820000
  94.4599408  37.9469408  81.0610000 106.7989408  38.8369408  81.9130000
 106.1259408  38.2629408  81.5470000 107.3839408  38.2479408  82.3890000
 107.3339408  31.3149408  77.3720000 107.1459408  32.1649408  77.7700000
 106.5919408  30.7639408  77.6200000  94.3569408  54.6489408  73.1330000
  95.1819408  55.0809408  72.9100000  93.8739408  55.2999408  73.6410000
  96.0859408  44.8579408  71.4430000  95.4669408  45.3769408  70.9300000
  95.9959408  45.1919408  72.3360000 103.4409408  46.1729408  68.5040000
 103.3789408  45.9409408  67.5780000 102.7799408  46.8539408  68.6260000
  98.5019408  34.1379408  68.6120000  98.8629408  34.4539408  67.7840000
  98.9809408  33.3279408  68.7890000  99.2219408  59.9579408  79.5540000
  99.1209408  59.3189408  78.8490000  99.7729408  60.6449408  79.1780000
  95.8979408  56.1729408  75.7840000  94.9769408  56.4009408  75.6590000
  96.2559408  56.1269408  74.8980000  94.1719408  38.0399408  66.5580000
  93.5999408  38.3309408  67.2680000  94.3229408  38.8259408  66.0330000
 110.9309408  38.1219408  77.8530000 110.4899408  38.4399408  78.6410000
 111.2959408  38.9089408  77.4480000  93.5469408  59.1949408  74.3880000
  93.4529408  58.7309408  73.5560000  94.0779408  59.9629408  74.1760000
  97.6459408  45.5889408  60.5610000  98.1379408  44.9059408  61.0160000
  98.1499408  46.3889408  60.7110000  99.7719408  32.8839408  65.6410000
 100.6209408  32.7349408  66.0590000  99.7999408  32.3549408  64.8440000
  99.0259408  46.3989408  75.6100000  98.7289408  46.0099408  76.4320000
  98.4029408  46.0809408  74.9560000 114.9449408  40.7089408  82.4340000
 114.4059408  40.1399408  82.9830000 114.3479408  41.3989408  82.1430000
 102.9919408  36.0789408  80.9050000 103.2669408  36.9929408  80.8340000
 103.4549408  35.7489408  81.6750000 109.7759408  47.0209408  66.7930000
 109.6259408  47.7959408  66.2530000 109.1299408  47.0889408  67.4960000
 114.9269408  45.3199408  69.5870000 115.3159408  44.5869408  70.0650000
 115.3279408  45.2809408  68.7190000  95.7419408  41.5499408  72.2860000
  95.5099408  41.7689408  73.1890000  96.5849408  41.9799408  72.1450000
 119.0709408  32.3679408  73.5800000 119.1899408  32.7229408  74.4610000
 119.9599408  32.2269408  73.2550000 105.3469408  37.8619408  73.5700000
 105.5059408  37.1419408  72.9600000 106.2199408  38.1279408  73.8590000
 103.9419408  57.7469408  71.2050000 103.6119408  57.6369408  72.0970000
 103.2129408  58.1429408  70.7270000  92.4759408  43.4329408  71.5170000
  92.9669408  43.3179408  72.3310000  92.3929408  44.3819408  71.4200000
  94.0809408  40.9719408  70.1910000  93.3579408  41.5829408  70.3280000
  94.6869408  41.1519408  70.9110000  92.4699408  32.2689408  69.4860000
  91.9209408  33.0069408  69.2190000  91.8819408  31.5139408  69.4670000
  93.0199408  46.0899408  71.5960000  92.9749408  46.1599408  72.5500000
  93.1089408  46.9939408  71.2930000 102.5739408  44.1909408  76.7410000
 102.6879408  43.7449408  75.9010000 103.3929408  44.6689408  76.8720000
  99.4949408  45.9309408  63.8740000  99.7659408  45.7989408  64.7830000
  99.9059408  46.7569408  63.6190000  98.0449408  48.2839408  77.2700000
  97.8129408  47.5769408  77.8720000  98.2419408  47.8409408  76.4450000
  98.0199408  31.0509408  74.0630000  98.1869408  31.8039408  73.4960000
  98.5849408  31.1939408  74.8240000 102.3299408  53.4389408  64.0320000
 101.5709408  52.9229408  63.7610000 103.0749408  53.0059408  63.6160000
  93.8559408  58.2669408  66.1100000  93.5329408  59.1219408  65.8250000
  94.7399408  58.4389408  66.4320000  92.1229408  52.1309408  77.8600000
  92.8419408  51.8089408  77.3180000  92.3069408  53.0629408  77.9750000
 108.9909408  38.3469408  65.9690000 109.9089408  38.3779408  66.2400000
 108.8449408  37.4349408  65.7200000  95.8029408  46.0779408  64.3120000
  96.5949408  45.6419408  63.9980000  95.6179408  45.6609408  65.1540000
 105.6349408  41.6509408  63.7230000 106.4549408  41.1739408  63.8460000
 105.4639408  42.0589408  64.5730000 103.6209408  45.0579408  71.2560000
 102.8359408  45.3699408  71.7060000 103.5009408  45.3309408  70.3470000
  96.7349408  40.4089408  76.9120000  97.6709408  40.2119408  76.8740000
  96.3309408  39.5979408  77.2210000  99.1019408  49.7299408  82.1000000
  99.8669408  49.3959408  81.6300000  99.3469408  50.6199408  82.3550000
  98.8879408  50.4159408  61.5990000  98.2829408  49.7779408  61.9770000
  98.7719408  51.2019408  62.1330000 103.4439408  30.5639408  65.1250000
 104.2609408  30.5429408  65.6220000 103.7179408  30.5099408  64.2090000
  98.1309408  47.3219408  69.6840000  98.1119408  48.2399408  69.4110000
  97.9969408  47.3509408  70.6310000 101.8609408  38.8709408  60.8180000
 101.4729408  39.7019408  60.5460000 102.8049408  39.0259408  60.7920000
 104.0549408  50.7059408  79.8650000 103.1819408  50.5199408  80.2090000
 104.1139408  50.1809408  79.0660000  98.7819408  44.8269408  70.5120000
  97.8989408  44.6719408  70.8490000  98.7299408  45.6859408  70.0920000
 115.7759408  45.5769408  75.5950000 116.5949408  45.4519408  75.1160000
 115.8309408  44.9639408  76.3280000 104.7319408  35.0299408  66.7360000
 105.2879408  34.2539408  66.6670000 105.2679408  35.6689408  67.2060000
 104.8019408  45.4929408  76.8610000 104.9129408  46.3009408  76.3600000
 105.6729408  45.3059408  77.2110000 117.4529408  42.4809408  72.6510000
 116.9679408  41.6609408  72.7380000 118.3159408  42.2169408  72.3320000
 109.8039408  40.9529408  68.8190000 110.7069408  41.2619408  68.7410000
 109.2889408  41.5889408  68.3220000 103.6759408  42.0399408  68.3110000
 102.9579408  42.4469408  68.7970000 103.3909408  41.1369408  68.1740000
  94.4319408  29.9699408  69.1520000  94.9539408  30.3289408  69.8690000
  93.7079408  30.5879408  69.0490000  93.1979408  45.2869408  67.9950000
  92.5999408  45.4139408  67.2590000  92.7259408  44.7069408  68.5910000
 103.4919408  40.2479408  75.4210000 104.1179408  40.9619408  75.5410000
 104.0109408  39.5349408  75.0460000 118.8019408  36.7519408  75.1170000
 118.5949408  36.3399408  74.2790000 117.9779408  37.1509408  75.3980000
  96.3509408  42.5299408  80.8020000  95.7639408  42.6359408  80.0530000
  96.8079408  43.3679408  80.8690000  92.1939408  32.4329408  75.0200000
  91.9859408  32.0149408  74.1840000  92.7589408  33.1699408  74.7850000
 110.3539408  31.1919408  74.3940000 111.2449408  31.0649408  74.0680000
 110.3279408  32.1089408  74.6690000 102.9529408  48.1909408  64.7110000
 102.8259408  48.4779408  65.6150000 103.8859408  48.3269408  64.5450000
 101.2079408  43.2309408  69.6310000 101.4929408  43.1859408  70.5430000
 100.4689408  43.8389408  69.6400000  95.2889408  46.5969408  61.2440000
  96.1979408  46.4009408  61.4730000  95.0949408  46.0109408  60.5130000
  95.9609408  31.2959408  70.8390000  96.7089408  31.8909408  70.8830000
  95.2019408  31.8499408  71.0230000 104.0369408  39.3019408  70.0320000
 103.0859408  39.2279408  69.9500000 104.3769408  38.5189408  69.5980000
 103.8409408  45.9929408  79.9150000 103.3829408  45.6059408  79.1690000
 104.1529408  46.8389408  79.5910000 107.9259408  43.8949408  74.1400000
 106.9729408  43.9149408  74.2200000 108.2449408  44.1439408  75.0080000
 107.9639408  34.7779408  60.3340000 107.0519408  35.0459408  60.4500000
 108.1979408  34.3589408  61.1630000  96.0819408  41.7559408  63.1260000
  95.2619408  42.2489408  63.0890000  96.7199408  42.3779408  63.4750000
 110.7849408  41.9599408  77.6010000 111.3309408  41.2469408  77.2700000
 110.9109408  42.6709408  76.9720000 106.0959408  40.7469408  69.5820000
 105.3069408  40.3579408  69.9590000 106.3329408  40.1619408  68.8630000
 101.8799408  41.9409408  63.1400000 101.5959408  41.9629408  64.0530000
 102.2839408  41.0799408  63.0340000 100.6029408  48.1769408  72.3180000
  99.6709408  48.0139408  72.4610000 100.6839408  49.1309408  72.3230000
 106.8019408  50.5669408  75.9690000 107.5409408  49.9729408  75.8380000
 106.7199408  51.0359408  75.1380000  96.3819408  33.8779408  66.2780000
  96.8239408  34.1609408  67.0780000  96.7769408  34.4079408  65.5850000
 107.8219408  40.6709408  84.7140000 107.0509408  40.2079408  84.3860000
 108.5589408  40.2549408  84.2680000 110.9929408  46.8169408  61.4860000
 111.3499408  47.6909408  61.3270000 110.4049408  46.9299408  62.2320000
 117.1529408  43.0869408  76.5300000 117.5009408  42.5009408  77.2020000
 116.4709408  42.5749408  76.0950000 118.4819408  40.9349408  69.6410000
 118.8959408  41.1749408  70.4700000 118.9019408  41.4979408  68.9910000
 104.8989408  56.5689408  68.8670000 104.8359408  56.8249408  69.7880000
 104.8469408  55.6129408  68.8800000  96.4319408  39.2409408  69.6680000
  95.6539408  39.7959408  69.6110000  96.1929408  38.4429408  69.1960000
 107.9739408  40.1959408  64.3400000 108.5639408  40.9399408  64.4650000
 108.2259408  39.5729408  65.0210000 104.5639408  41.3319408  72.5050000
 105.3129408  41.9219408  72.4160000 104.8419408  40.5249408  72.0710000
  95.8949408  49.3489408  70.4970000  95.2319408  49.5939408  71.1420000
  95.4229408  48.8129408  69.8600000 100.5329408  34.8369408  71.0850000
 100.4469408  35.5079408  70.4070000 101.3799408  35.0149408  71.4930000
  98.3729408  53.4639408  73.1860000  99.1639408  53.9339408  72.9220000
  97.6539408  53.9979408  72.8490000  98.0019408  43.8009408  64.2870000
  98.6839408  44.4149408  64.0160000  97.9259408  43.9279408  65.2330000
  98.5919408  50.0079408  71.6570000  97.6919408  49.6829408  71.6220000
  98.5009408  50.9549408  71.7650000  98.5059408  59.5499408  64.7200000
  99.2599408  59.8159408  64.1930000  98.6619408  59.9459408  65.5770000
  94.0379408  57.2559408  69.9530000  94.9729408  57.0479408  69.9550000
  93.9999408  58.1869408  69.7350000 107.8569408  35.7969408  66.3200000
 108.7739408  35.6119408  66.1180000 107.3679408  35.4069408  65.5960000
 114.8209408  37.4299408  68.6100000 114.9309408  36.7309408  67.9650000
 115.4989408  38.0679408  68.3900000  99.6499408  41.8419408  67.8760000
 100.4039408  42.2779408  68.2730000  99.2779408  41.3139408  68.5820000
 107.8409408  41.3329408  81.0730000 107.5779408  40.4969408  81.4570000
 107.0239408  41.8229408  80.9800000 106.4069408  33.6289408  79.0480000
 107.1099408  34.2789408  79.0450000 106.1969408  33.5069408  79.9740000
 101.6449408  38.1269408  83.6070000 101.9199408  37.4939408  84.2710000
 101.9309408  38.9729408  83.9510000 108.3389408  38.6359408  77.0160000
 108.1949408  39.4509408  77.4970000 109.2549408  38.4159408  77.1850000
  97.8239408  39.7049408  61.9020000  98.6989408  39.3949408  62.1340000
  97.3699408  39.7939408  62.7400000 103.4879408  38.3599408  77.7820000
 102.5719408  38.4729408  78.0380000 103.7179408  39.1799408  77.3450000
 117.1329408  43.4899408  66.5760000 116.2129408  43.7239408  66.4540000
 117.5309408  44.2739408  66.9540000  95.3919408  39.8369408  81.5440000
  94.4879408  40.0839408  81.7380000  95.8819408  40.6569408  81.5990000
 105.6989408  43.6459408  81.5090000 104.9289408  44.2119408  81.4530000
 105.7449408  43.3939408  82.4310000  95.3759408  35.8509408  64.5400000
  95.9379408  36.5929408  64.3170000  95.1269408  36.0039408  65.4520000
 111.4999408  50.8909408  81.6630000 111.5299408  51.8449408  81.5890000
 111.2169408  50.5929408  80.7990000 106.1989408  42.7839408  84.3270000
 106.9519408  42.3809408  84.7590000 105.5079408  42.1229408  84.3830000
 110.3079408  42.6819408  81.5200000 109.5659408  42.7069408  82.1230000
 110.0339408  43.2229408  80.7790000 113.5869408  41.2759408  63.3410000
 112.6949408  41.6219408  63.3230000 114.1119408  41.9439408  62.9000000
  97.8799408  56.0279408  83.7110000  98.5289408  56.2299408  83.0370000
  97.0729408  55.8609408  83.2240000 108.4169408  44.7709408  80.7260000
 108.8399408  45.1919408  81.4750000 107.5249408  44.5919408  81.0240000
 104.9759408  45.1649408  83.9550000 105.6309408  45.7189408  83.5300000
 105.4869408  44.4979408  84.4130000 110.1269408  47.4139408  77.2570000
 110.8569408  48.0169408  77.1180000 110.2649408  47.0689408  78.1390000
 107.7229408  39.0149408  74.5310000 108.2079408  39.8399408  74.5330000
 107.7629408  38.7109408  75.4380000 107.0589408  34.2909408  63.6940000
 107.3229408  33.4279408  64.0130000 106.3329408  34.1129408  63.0950000
 102.1429408  43.0499408  83.4810000 102.7959408  43.1569408  82.7890000
 101.8279408  43.9369408  83.6530000  99.2999408  34.7489408  76.6790000
  98.4779408  34.7659408  76.1890000  99.0309408  34.7099408  77.5970000
 100.2849408  39.8869408  72.5980000 100.8409408  39.1149408  72.4900000
 100.1829408  39.9779408  73.5460000 118.8309408  37.2719408  62.2880000
 118.8699408  36.9779408  63.1980000 119.5399408  36.7969408  61.8530000
 107.8369408  35.8009408  78.3520000 108.7399408  35.6199408  78.0890000
 107.7859408  36.7559408  78.3950000 102.3099408  47.8379408  78.4750000
 101.5999408  47.7869408  77.8350000 102.9599408  48.4099408  78.0670000
 111.5769408  40.0929408  73.5580000 110.8019408  40.5149408  73.9290000
 111.6999408  40.5189408  72.7100000  95.6739408  53.6199408  60.0820000
  96.0949408  53.8689408  60.9050000  96.3839408  53.2649408  59.5480000
  93.0279408  48.2679408  61.4330000  93.1569408  49.2159408  61.4620000
  93.8729408  47.9189408  61.1520000  95.6639408  38.1749408  78.2520000
  96.2629408  37.8789408  78.9380000  95.1889408  37.3859408  77.9920000
  95.9109408  36.2639408  83.1760000  95.8639408  35.3079408  83.1610000
  95.2579408  36.5469408  82.5370000  93.5549408  42.7819408  63.2750000
  92.7219408  42.4139408  63.5720000  93.4619408  43.7249408  63.4110000
 110.1159408  33.8369408  75.0270000 110.6079408  34.5009408  74.5440000
 109.2639408  33.8059408  74.5920000  99.1499408  59.6889408  82.5040000
  99.9349408  60.2339408  82.5540000  99.1679408  59.3219408  81.6200000
  99.0229408  40.0999408  83.4030000  98.3649408  40.6929408  83.7660000
  98.5369408  39.3039408  83.1870000  92.6359408  39.1879408  72.6550000
  92.1249408  39.8089408  73.1730000  91.9839408  38.6069408  72.2650000
 100.1199408  31.7629408  63.4120000  99.5699408  31.8339408  62.6310000
 100.9739408  32.0939408  63.1340000 114.7679408  36.0699408  77.1460000
 113.8289408  36.0299408  76.9640000 115.1819408  35.7409408  76.3480000
  95.1569408  41.4689408  75.1180000  94.3929408  41.0489408  75.5120000
  95.9069408  41.0229408  75.5130000 106.3049408  47.8459408  78.6500000
 106.4699408  48.5339408  78.0040000 106.6669408  47.0539408  78.2540000
 101.4229408  31.4139408  82.3640000 101.7979408  31.2949408  83.2370000
 102.1729408  31.6199408  81.8060000  94.3739408  32.0349408  82.5920000
  95.0449408  32.5869408  82.9950000  93.7539408  32.6539408  82.2080000
  97.8019408  46.5439408  67.0640000  97.6149408  45.6139408  67.1890000
  97.8329408  46.9049408  67.9500000 102.7309408  42.2139408  78.9580000
 102.2289408  41.4239408  78.7610000 102.6519408  42.7509408  78.1690000
  97.4109408  38.2469408  82.5390000  97.0039408  37.3889408  82.6570000
  96.8979408  38.6629408  81.8460000 108.8269408  33.5309408  82.3500000
 108.8589408  32.6169408  82.6340000 109.3369408  33.5479408  81.5400000
 103.0339408  44.4019408  63.2410000 103.4299408  44.6769408  62.4150000
 102.6019408  43.5729408  63.0360000 104.6579408  31.6439408  84.3280000
 105.2989408  31.5509408  85.0330000 103.8909408  32.0299408  84.7510000
  99.2199408  40.8319408  80.8010000  98.2959408  40.9889408  80.6070000
  99.2279408  40.5439408  81.7140000  98.1889408  47.1529408  83.5900000
  99.0689408  47.0679408  83.9560000  97.9749408  48.0809408  83.6910000
  97.2109408  38.0059408  65.3860000  96.6419408  38.7579408  65.5510000
  97.9689408  38.1489408  65.9520000 120.1159408  38.1649408  71.4220000
 120.1929408  37.2509408  71.1470000 119.2939408  38.4639408  71.0340000
 111.0649408  39.6399408  62.0140000 111.5329408  39.0169408  62.5690000
 111.5449408  39.6309408  61.1850000  94.8949408  48.8529408  66.4910000
  95.2919408  49.6979408  66.7040000  95.4089408  48.5259408  65.7530000
  90.8779408  59.1329408  61.2170000  91.1779408  59.6449408  60.4660000
  91.0379408  58.2229408  60.9670000  96.9089408  34.5699408  75.4710000
  96.4269408  35.1219408  74.8560000  96.2819408  34.3849408  76.1700000
 106.1519408  46.8349408  66.9130000 105.4469408  46.5409408  66.3350000
 105.7099408  47.0769408  67.7270000 105.4429408  30.1609408  73.2290000
 106.1079408  29.5109408  73.4580000 105.5879408  30.8799408  73.8430000
 114.0269408  49.3799408  81.4100000 114.2849408  48.4959408  81.6720000
 113.1719408  49.5119408  81.8210000 104.3959408  48.1949408  70.7400000
 104.3709408  48.1429408  71.6950000 104.2869408  47.2889408  70.4480000
  94.5679408  42.7609408  83.3450000  94.5269408  43.7069408  83.4870000
  94.8839408  42.6679408  82.4460000 111.5419408  32.2789408  84.3060000
 111.1949408  32.1159408  83.4290000 111.4429408  31.4439408  84.7630000
 104.6329408  53.1429408  70.1660000 104.8209408  53.6079408  69.3500000
 104.7559408  52.2189408  69.9490000 105.3159408  42.0549408  76.3340000
 104.9349408  42.8129408  76.7780000 106.1729408  41.9419408  76.7450000
 112.2929408  47.8109408  83.8080000 112.1829408  47.0259408  84.3450000
 112.7159408  48.4419408  84.3890000  99.7159408  47.2639408  60.6440000
 100.4809408  46.8889408  60.2080000 100.0779408  47.7609408  61.3780000
  97.2109408  41.8149408  84.3940000  96.3699408  42.1359408  84.0660000
  97.5599408  42.5409408  84.9100000  90.1669408  38.8079408  80.3710000
  89.8829408  38.0049408  80.8070000  89.9809408  39.5029408  81.0020000
 101.3649408  39.9299408  78.7550000 100.7509408  39.2719408  78.4300000
 101.2129408  39.9549408  79.7000000 104.3869408  50.9349408  61.0510000
 103.5169408  51.2199408  60.7720000 104.8489408  50.7409408  60.2360000
 100.7769408  39.9669408  75.3550000 101.7099408  40.1599408  75.2610000
 100.7469408  39.1889408  75.9110000 109.8279408  45.7489408  73.0870000
 110.5869408  45.7009408  73.6680000 109.2939408  44.9909408  73.3260000
 118.4329408  31.3169408  77.7720000 118.3759408  30.3929408  78.0160000
 118.3789408  31.7879408  78.6040000 106.9629408  46.6139408  82.6300000
 106.8069408  47.5369408  82.8310000 107.8629408  46.5879408  82.3060000
 116.9299408  41.9079408  61.8610000 116.9209408  42.4829408  62.6270000
 117.6339408  41.2839408  62.0360000 105.8339408  33.3109408  61.4930000
 106.3929408  32.5349408  61.4550000 105.4889408  33.4019408  60.6050000
  90.8749408  33.4179408  83.9600000  90.5559408  32.5409408  83.7490000
  91.6379408  33.5389408  83.3940000 103.8929408  49.7199408  77.2500000
 103.8199408  50.5249408  76.7370000 104.7049408  49.3139408  76.9450000
 100.5189408  37.1779408  75.9270000 100.5439408  36.3239408  76.3590000
 100.1409408  36.9999408  75.0660000 105.9109408  57.6449408  80.9300000
 105.4609408  56.9469408  80.4540000 105.2979408  57.8989408  81.6190000
 107.6369408  60.0739408  82.6510000 107.4279408  59.3739408  82.0330000
 107.3079408  59.7569408  83.4920000  97.9469408  37.0969408  79.7360000
  97.9239408  36.1409408  79.7090000  98.7869408  37.3059408  80.1460000
 106.8989408  59.9439408  65.6780000 106.7499408  59.2089408  66.2740000
 106.6159408  59.6199408  64.8230000  99.8299408  57.2289408  65.4010000
  98.9329408  57.4469408  65.1470000 100.3679408  57.5429408  64.6740000
  91.1219408  36.0539408  69.6410000  90.6489408  36.3209408  68.8530000
  91.9209408  36.5809408  69.6320000 101.1519408  52.9069408  80.7830000
 101.1849408  51.9589408  80.9060000 100.5209408  53.0349408  80.0740000
 101.0869408  55.7069408  67.3250000 100.8939408  56.1889408  68.1280000
 100.7599408  56.2699408  66.6230000  92.6749408  48.7829408  70.9760000
  93.1839408  49.3299408  71.5740000  93.0549408  48.9529408  70.1140000
 103.9669408  45.5319408  65.7910000 104.1179408  44.5939408  65.6770000
 103.3829408  45.7699408  65.0710000  92.1679408  34.6769408  72.0900000
  91.6919408  35.0179408  71.3330000  91.8439408  35.1909408  72.8290000
  99.7219408  58.0699408  68.6160000  99.4219408  58.0619408  67.7080000
  99.1469408  58.6979408  69.0530000 101.7279408  50.3879408  81.2710000
 101.6209408  49.5149408  80.8940000 102.3419408  50.2629408  81.9960000
 118.0529408  55.8899408  72.2050000 118.2489408  56.7309408  72.6180000
 117.0989408  55.8779408  72.1250000 103.8599408  36.7389408  62.4700000
 103.0679408  37.2019408  62.1940000 103.5509408  36.0939408  63.1060000
  94.9999408  59.5199408  78.2440000  95.1339408  59.6689408  79.1800000
  94.6149408  60.3359408  77.9240000 100.5059408  49.8669408  66.1100000
  99.8559408  49.5139408  65.5030000  99.9949408  50.3779408  66.7380000
 103.0909408  35.1259408  64.6640000 103.6829408  35.1169408  65.4160000
 102.3979408  34.5079408  64.8970000  93.3269408  54.6049408  79.3680000
  94.2059408  54.2289408  79.3230000  93.4169408  55.4729408  78.9750000
  90.0379408  51.4779408  64.6990000  90.9309408  51.1549408  64.5830000
  89.4899408  50.8369408  64.2450000 105.7609408  55.8819408  64.7460000
 105.6409408  55.0999408  64.2060000 104.9199408  55.9989408  65.1890000
 104.2179408  50.3289408  73.1910000 104.4609408  51.2159408  72.9250000
 105.0449408  49.9189408  73.4450000 107.6079408  51.4719408  81.4500000
 107.1129408  52.1989408  81.8280000 107.2049408  50.6879408  81.8230000
 102.8429408  54.9729408  81.9030000 102.4879408  54.2539408  81.3800000
 103.3269408  55.5089408  81.2750000  94.6779408  52.4899408  76.5850000
  95.2769408  53.2359408  76.6160000  95.2109408  51.7439408  76.8610000
  95.7979408  51.3969408  66.7650000  96.4539408  51.7799408  67.3470000
  94.9819408  51.4349408  67.2640000 107.4849408  57.6719408  67.7400000
 106.6389408  57.2889408  67.9700000 107.8719408  57.0489408  67.1250000
  92.3099408  48.7869408  65.5240000  91.6629408  48.6259408  66.2120000
  93.1549408  48.6519408  65.9530000 104.3059408  58.7819408  67.3720000
 104.7559408  58.1469408  67.9280000 103.9669408  58.2639408  66.6420000
 114.3189408  54.7159408  74.1060000 114.8969408  53.9829408  73.8980000
 114.5489408  55.3919408  73.4680000  96.4959408  48.9039408  62.3800000
  95.9039408  49.5189408  61.9470000  95.9969408  48.0889408  62.4350000
 106.4369408  49.0669408  81.2430000 106.5039408  48.3559408  80.6060000
 105.6939408  49.5899408  80.9420000  97.2649408  53.0889408  63.3920000
  97.5729408  53.8519408  62.9040000  97.6459408  53.1919408  64.2640000
 100.3759408  53.4779408  77.1180000  99.6279408  53.2069408  77.6500000
 100.5139408  52.7509408  76.5100000 105.4449408  55.1009408  74.0140000
 106.2459408  55.2109408  73.5020000 105.0809408  54.2679408  73.7140000
  99.1669408  35.4379408  65.7480000  98.8509408  35.6709408  64.8750000
  99.4189408  34.5179408  65.6750000  94.2729408  50.1469408  72.5690000
  93.8439408  50.9559408  72.8460000  95.0339408  50.0699408  73.1450000
  93.2469408  45.4839408  63.2100000  93.6359408  46.1419408  62.6340000
  93.7999408  45.4919408  63.9910000  94.1789408  47.7809408  68.9290000
  94.2309408  48.1619408  68.0530000  93.5919408  47.0319408  68.8310000
 101.1639408  59.3629408  74.0990000 101.9599408  59.0219408  74.5070000
 100.8289408  60.0059408  74.7250000 101.2709408  59.4239408  60.7540000
 101.1439408  59.1009408  59.8620000 100.7259408  60.2099408  60.8040000
 100.1639408  44.3359408  77.9330000  99.7059408  43.4989408  77.8530000
 100.9369408  44.2409408  77.3770000  96.7049408  54.8669408  67.0240000
  97.3139408  54.3839408  66.4660000  96.0519408  55.2189408  66.4190000
  90.7809408  47.7779408  63.0700000  91.3749408  47.8329408  63.8190000
  91.3059408  48.0689408  62.3250000  96.9129408  56.0559408  73.0170000
  96.7609408  56.9919408  73.1450000  97.8609408  55.9539408  73.1010000
  99.9689408  55.5049408  71.5150000 100.0609408  56.2039408  72.1630000
  99.5309408  55.9229408  70.7730000 102.8559408  32.0519408  69.6080000
 103.6339408  31.5559408  69.8640000 102.6389408  32.5739408  70.3800000
 100.9059408  52.2719408  61.9450000 100.8709408  51.3879408  61.5790000
 100.4339408  52.8129408  61.3120000  90.6149408  44.7429408  62.4330000
  89.9859408  45.4539408  62.5520000  91.4659408  45.1429408  62.6100000
 105.8529408  53.8829408  67.9390000 105.9139408  53.7729408  66.9900000
 106.7569408  54.0099408  68.2250000  97.6779408  45.6369408  78.2270000
  97.3809408  45.6059408  79.1360000  98.4549408  45.0779408  78.2080000
 101.6299408  53.2589408  71.2250000 101.9139408  53.2529408  70.3110000
 100.9499408  53.9319408  71.2610000  93.3079408  52.3489408  74.1740000
  93.6449408  53.1049408  73.6930000  93.8179408  52.3319408  74.9840000
 110.0859408  33.0319408  61.4180000 110.4329408  32.3479408  60.8450000
 109.2249408  32.7079408  61.6830000 118.1769408  32.4219408  80.1510000
 117.3749408  32.2089408  80.6290000 118.4289408  33.2859408  80.4760000
 109.2209408  58.9019408  69.3070000 108.6819408  59.2899408  69.9960000
 108.5979408  58.6619408  68.6210000  90.7819408  46.6869408  75.9170000
  90.1779408  46.2529408  76.5200000  90.3069408  47.4619408  75.6180000
  96.7389408  54.1779408  69.9850000  96.8389408  55.0859408  70.2700000
  96.8689408  54.2079408  69.0370000 100.4329408  31.4439408  75.7220000
 100.5989408  31.4719408  76.6650000 100.7079408  32.3039408  75.4050000
  93.3309408  49.3729408  78.2010000  92.4419408  49.5659408  78.5000000
  93.8949408  49.6769408  78.9110000 116.3379408  38.5209408  74.7070000
 115.9319408  39.3879408  74.7270000 115.5999408  37.9109408  74.7000000
  93.1059408  51.9459408  68.1800000  93.4189408  52.7029408  68.6760000
  92.1519408  52.0229408  68.2010000 105.4369408  53.2539408  80.0090000
 106.0059408  53.1119408  79.2530000 105.0009408  52.4129408  80.1430000
  97.0619408  51.4499408  69.2770000  97.2629408  52.2119408  69.8210000
  96.5489408  50.8769408  69.8470000 102.0659408  58.8869408  69.7040000
 101.2279408  58.5389408  69.3980000 102.5209408  59.1529408  68.9050000
 101.2699408  56.0949408  76.5260000 101.8939408  56.0249408  75.8040000
 101.2699408  55.2259408  76.9290000 100.8659408  48.4719408  62.7640000
 100.6719408  49.4039408  62.8690000 101.5619408  48.2989408  63.3990000
 103.6439408  30.4429408  61.8470000 102.8629408  30.2199408  61.3410000
 103.6489408  31.3999408  61.8730000  93.1739408  30.5829408  64.5740000
  94.1289408  30.6499408  64.5680000  92.8779408  31.4079408  64.9580000
  99.4209408  51.4549408  67.9740000  98.8169408  51.4819408  68.7160000
 100.2109408  51.8929408  68.2920000 118.8549408  53.9129408  70.4620000
 118.1329408  53.2899408  70.3720000 118.5459408  54.5469408  71.1090000
  99.8059408  45.8759408  81.7940000  98.8959408  46.1509408  81.9020000
  99.7489408  44.9669408  81.5000000  97.9939408  51.3219408  74.6600000
  98.8919408  51.3319408  74.9910000  97.9779408  52.0019408  73.9870000
 115.4639408  55.1709408  68.5830000 114.5769408  55.4189408  68.3240000
 115.9009408  54.9499408  67.7600000 114.4759408  50.8279408  79.0240000
 115.3199408  51.0919408  78.6570000 114.7019408  50.2359408  79.7420000
 102.9509408  31.3049408  72.5350000 103.5739408  30.6049408  72.7320000
 102.1069408  30.9639408  72.8300000 119.8429408  56.8959408  68.9490000
 119.2369408  56.1979408  68.6960000 120.4319408  56.4839408  69.5810000
 103.2739408  56.0209408  65.5640000 103.0779408  55.8549408  66.4860000
 102.5129408  55.6839408  65.0920000 103.9679408  53.1959408  72.7510000
 103.0609408  53.1179408  72.4530000 104.4749408  53.3119408  71.9480000
  97.9659408  53.2009408  84.6000000  98.6309408  52.7009408  84.1270000
  97.9549408  54.0549408  84.1660000 118.8189408  58.9629408  79.5480000
 119.3499408  58.7979408  80.3270000 117.9169408  58.8389408  79.8420000
  97.1999408  32.1849408  79.7970000  97.7519408  31.4189408  79.6400000
  96.4489408  31.8439408  80.2840000 106.6659408  42.2829408  61.1970000
 106.1439408  43.0379408  60.9240000 106.2319408  41.9649408  61.9890000
 101.4439408  45.8639408  83.9440000 102.0879408  46.3889408  83.4680000
 100.7859408  45.6379408  83.2870000 104.5009408  42.8519408  65.8720000
 104.3729408  42.6739408  66.8040000 103.6179408  42.8409408  65.5020000
 100.8959408  49.7499408  69.9370000 100.1039408  49.8069408  70.4710000
 101.6099408  49.9329408  70.5480000 109.0259408  44.6979408  65.6060000
 109.1789408  45.5409408  66.0320000 108.8219408  44.0999408  66.3250000
  96.7689408  58.4729408  74.2330000  97.3599408  59.2059408  74.4070000
  95.9639408  58.6979408  74.6990000 117.3529408  30.3099408  72.8330000
 117.5099408  29.6729408  73.5300000 117.9369408  31.0399408  73.0390000
 102.1129408  48.3489408  67.7370000 101.7449408  48.5769408  68.5910000
 101.5649408  48.8179408  67.1070000 114.6629408  49.5749408  72.4850000
 114.9049408  48.8659408  73.0800000 114.1909408  49.1409408  71.7740000
  91.4539408  59.7109408  75.8930000  91.4329408  60.6619408  76.0040000
  92.2849408  59.5399408  75.4500000  96.8329408  50.5419408  77.8900000
  97.4509408  49.8449408  77.6710000  96.2749408  50.1639408  78.5700000
 115.2199408  44.8659408  61.3530000 115.3179408  44.0859408  60.8060000
 114.4369408  45.3009408  61.0120000 108.8679408  57.6099408  63.3490000
 109.7269408  57.3279408  63.6620000 108.2529408  57.2769408  64.0020000
  98.3579408  34.1779408  61.8600000  98.4489408  34.8209408  62.5630000
  97.5369408  33.7239408  62.0540000 101.2019408  58.7629408  63.4690000
 101.2119408  59.5939408  63.9450000 101.6049408  58.9659408  62.6240000
  96.1329408  53.5059408  80.1000000  96.3269408  53.2889408  79.1880000
  96.9599408  53.8419408  80.4480000 100.2109408  58.4339408  71.9620000
 101.0079408  58.2959408  71.4500000 100.5229408  58.6039408  72.8510000
  91.6809408  58.4499408  67.5820000  92.3499408  57.9409408  67.1260000
  90.8959408  57.9039408  67.5440000 115.9239408  52.7609408  73.2040000
 115.7279408  52.7439408  72.2670000 116.0819408  51.8459408  73.4340000
 109.3099408  56.6769408  74.0320000 109.6109408  56.8749408  74.9190000
 109.3619408  55.7229408  73.9680000  93.3539408  54.7089408  69.0660000
  93.7559408  55.5449408  69.3010000  92.5179408  54.9489408  68.6650000
  91.4129408  56.7549408  60.3960000  92.1889408  57.0679408  59.9310000
  91.2349408  55.8959408  60.0140000 119.6089408  57.8679408  75.3230000
 120.1049408  57.1339408  74.9590000 120.2649408  58.5469408  75.4810000
 112.3659408  44.6299408  68.6880000 111.7399408  44.6659408  69.4110000
 113.1379408  45.0919408  69.0160000  91.5119408  49.0599408  73.6060000
  90.8219408  49.4449408  73.0660000  92.0049408  48.5029408  73.0030000
  93.9449408  56.8669408  78.1460000  93.7629408  56.8199408  77.2080000
  94.4529408  57.6719408  78.2510000 103.2799408  52.0519408  75.6120000
 102.3279408  51.9589408  75.6370000 103.5199408  51.8259408  74.7140000
 102.9559408  51.3659408  66.3640000 103.4859408  51.8059408  65.6990000
 102.4029408  50.7609408  65.8690000  93.4409408  36.1809408  61.9050000
  94.0029408  36.8479408  61.5100000  93.9759408  35.7989408  62.6010000
 107.0119408  53.5979408  60.0990000 107.4669408  54.3679408  60.4400000
 106.1409408  53.9179408  59.8630000 108.2589408  42.5979408  67.4360000
 107.7069408  41.9699408  66.9700000 107.6589408  43.0499408  68.0290000
  90.1369408  33.5589408  65.8370000  89.9919408  32.6449408  65.5950000
  90.0729408  33.5669408  66.7920000 116.3759408  53.1479408  82.1470000
 115.9069408  53.8409408  81.6830000 117.2419408  53.1299408  81.7400000
 102.6159408  52.0489408  84.5270000 102.7129408  51.7699408  85.4380000
 103.1399408  51.4229408  84.0270000  94.7479408  56.4299408  62.0810000
  94.8309408  55.7089408  62.7050000  93.9279408  56.8609408  62.3190000
  99.2759408  56.4629408  74.7030000  99.7309408  56.2569408  75.5190000
  99.1089408  57.4049408  74.7520000 113.3719408  59.3539408  76.9710000
 113.3079408  58.3989408  76.9860000 112.9949408  59.6059408  76.1290000
 106.2559408  53.4489408  82.4580000 105.9049408  53.5529408  81.5740000
 105.4959408  53.5559408  83.0320000  96.9949408  45.9949408  80.7340000
  96.4209408  45.7369408  81.4560000  96.9939408  46.9519408  80.7580000
 106.4109408  57.9309408  76.0400000 106.7929408  58.4529408  76.7440000
 106.9819408  58.0879408  75.2870000 104.1419408  54.1589408  84.0840000
 103.6309408  53.3779408  84.2940000 103.5819408  54.6599408  83.4910000
 103.5379408  46.9969408  82.3460000 104.1009408  46.3869408  82.8230000
 103.4289408  46.5979408  81.4830000 103.4829408  49.4799408  83.5240000
 103.6019408  48.6709408  83.0260000 104.1959408  49.4769408  84.1620000
  95.5179408  50.8639408  60.6340000  94.6129408  50.9029408  60.3240000
  95.8689408  51.7369408  60.4600000 104.6979408  55.7839408  79.6430000
 104.8279408  55.7939408  78.6940000 104.6369408  54.8559408  79.8670000
  95.6269408  55.5319408  82.0670000  96.1349408  55.9269408  81.3580000
  95.2669408  54.7309408  81.6870000 114.5209408  47.0009408  82.3890000
 115.1209408  46.3069408  82.6620000 113.6929408  46.7869408  82.8180000
 100.6369408  51.0749408  75.7480000 101.0509408  50.3259408  76.1760000
 100.8889408  50.9959408  74.8280000 104.6019408  58.8039408  83.5100000
 105.1489408  58.3629408  84.1610000 104.6489408  59.7299408  83.7450000
 107.2359408  55.8399408  84.2300000 107.9919408  55.7569408  83.6490000
 106.6439408  55.1399408  83.9550000 106.3829408  55.0279408  76.5230000
 105.9809408  54.9789408  75.6560000 106.6939408  55.9299408  76.5930000
  89.8979408  55.6919408  82.9550000  89.7849408  54.8959408  83.4740000
  90.8379408  55.7319408  82.7780000  98.7329408  55.2859408  62.7840000
  99.4529408  55.3559408  62.1580000  98.2929408  56.1349408  62.7390000
 116.7709408  33.6649408  82.7270000 116.7729408  32.8369408  83.2070000
 117.3549408  34.2339408  83.2270000  99.9189408  33.5539408  81.8240000
  99.1149408  33.4609408  82.3350000 100.5089408  32.8899408  82.1800000
  98.4839408  42.6569408  72.7750000  98.7579408  43.2109408  72.0450000
  99.2489408  42.1129408  72.9640000  94.8689408  52.0059408  64.4930000
  95.4839408  52.3369408  63.8380000  95.3879408  51.9349408  65.2950000
  91.2759408  50.9209408  82.3260000  91.5259408  50.2529408  81.6880000
  91.9619408  51.5849408  82.2600000  97.4129408  56.2019408  80.0570000
  97.4249408  56.6489408  79.2110000  98.2419408  56.4469408  80.4690000
 111.6459408  55.8579408  79.2480000 111.8839408  55.4889408  78.3980000
 111.1379408  55.1669408  79.6750000 116.5009408  53.4099408  63.8900000
 117.2679408  53.2959408  63.3290000 116.1529408  54.2679408  63.6490000
 102.1069408  58.3369408  82.1520000 102.8629408  58.3479408  82.7390000
 101.9139408  59.2609408  81.9920000  96.9049408  59.6589408  84.4020000
  97.4049408  59.1249408  85.0190000  97.5369408  59.8999408  83.7250000
 105.8789408  32.1039408  81.6990000 105.5149408  31.9559408  82.5720000
 106.7829408  31.7959408  81.7610000  98.8949408  51.6709408  79.8570000
  98.2309408  51.5909408  79.1720000  98.9859408  50.7849408  80.2080000
 109.3409408  49.3989408  80.3370000 109.0289408  49.1119408  79.4790000
 108.5439408  49.5879408  80.8320000 103.0649408  31.5539408  80.0000000
 103.9649408  31.6039408  80.3230000 102.9399408  30.6309408  79.7800000
 100.1359408  52.0139408  83.1660000 100.2959408  52.4989408  82.3560000
 100.9959408  51.9489408  83.5810000 108.4869408  38.0279408  61.6070000
 109.1999408  38.3819408  62.1380000 108.0509408  38.7999408  61.2450000
 104.4529408  50.9099408  63.7780000 104.3679408  50.7669408  62.8350000
 105.0229408  50.2019408  64.0770000  97.1399408  57.5469408  77.6840000
  96.8289408  57.2759408  76.8200000  96.5409408  58.2459408  77.9460000
 105.7979408  58.7229408  63.2530000 105.6619408  57.7969408  63.0530000
 105.1299408  59.1799408  62.7420000  99.0859408  31.1759408  61.1750000
  98.4019408  30.5059408  61.1510000  98.6729408  31.9539408  60.8020000
  98.0329408  59.1679408  70.5370000  98.6119408  58.8459408  71.2270000
  97.5109408  59.8489408  70.9610000 102.8329408  46.8609408  73.8650000
 102.4649408  45.9809408  73.9370000 102.1939408  47.3459408  73.3420000
  95.5019408  30.1759408  80.8970000  95.1519408  30.8029408  81.5300000
  95.3639408  29.3209408  81.3060000 104.6709408  37.7959408  65.3550000
 105.3629408  37.6749408  64.7050000 104.3999408  36.9069408  65.5840000
 102.2429408  36.3459408  67.8770000 103.0639408  35.9189408  67.6340000
 101.5769408  35.9019408  67.3520000 114.9609408  45.1169408  66.4150000
 114.0719408  45.3439408  66.1410000 115.4919408  45.8699408  66.1570000
 109.3769408  37.5459408  72.7920000 109.5639408  37.9789408  71.9590000
 108.9799408  38.2279408  73.3340000 119.9389408  42.9329408  80.1570000
 119.2409408  43.5489408  79.9330000 119.5489408  42.0699408  80.0180000
 113.4369408  38.0999408  74.6000000 113.0629408  38.4679408  73.7990000
 113.0709408  37.2169408  74.6520000 117.4789408  33.9939408  70.6530000
 117.3369408  34.2939408  69.7560000 117.7139408  33.0699408  70.5640000
 113.8419408  37.9109408  71.1330000 113.2649408  38.4849408  70.6300000
 114.5029408  37.6239408  70.5030000 114.1399408  31.3499408  70.9420000
 113.2239408  31.4689408  71.1920000 114.1099408  30.7419408  70.2040000
  90.0609408  36.7279408  77.5830000  90.7789408  37.3319408  77.7720000
  89.7179408  37.0209408  76.7390000 109.3879408  42.0239408  61.7080000
 108.4449408  42.1189408  61.5730000 109.5609408  41.0969408  61.5410000
 108.6229408  34.8899408  72.5080000 109.1929408  34.4829408  71.8550000
 108.9969408  35.7609408  72.6440000 118.2209408  53.3229408  74.8680000
 117.5639408  53.4529408  74.1850000 119.0359408  53.1649408  74.3900000
 117.7609408  32.7849408  63.9490000 118.2159408  32.0179408  63.6010000
 117.0409408  32.9349408  63.3370000 105.8699408  37.0169408  60.6600000
 105.2029408  36.8519408  61.3270000 106.4569408  37.6569408  61.0610000
 115.9399408  35.4359408  74.7680000 116.1589408  35.8389408  73.9280000
 115.7629408  34.5199408  74.5560000 115.4509408  36.9699408  65.4990000
 114.8859408  36.2069408  65.3780000 115.7639408  37.1789408  64.6180000
  90.4629408  52.8909408  73.2580000  90.2129408  51.9829408  73.0880000
  91.3599408  52.8359408  73.5870000 104.7979408  41.2589408  80.4950000
 104.1209408  41.7319408  80.0110000 105.3779408  41.9449408  80.8280000
 108.4659408  53.8039408  69.1880000 108.8379408  54.6159408  68.8460000
 108.9149408  53.1109408  68.7040000 106.7079408  37.0059408  63.8860000
 107.1969408  37.5149408  63.2390000 106.7849408  36.0999408  63.5860000
  95.6159408  33.9159408  77.9620000  96.1299408  33.4149408  78.5940000
  95.1099408  33.2559408  77.4870000 115.2969408  35.6169408  79.7390000
 116.1719408  35.2819408  79.5430000 114.9219408  35.8239408  78.8830000
 100.5079408  37.1349408  80.9140000 101.3479408  36.7929408  80.6060000
 100.6289408  37.2549408  81.8560000  95.4309408  38.9249408  73.3460000
  94.5449408  38.8439408  73.6980000  95.4069408  39.7229408  72.8170000
 119.5329408  30.6999408  63.3760000 120.1959408  30.7629408  62.6890000
 119.1429408  29.8339408  63.2540000 109.1209408  41.3209408  73.8360000
 108.7309408  41.3989408  72.9650000 108.7629408  42.0599408  74.3270000
 113.4509408  46.6139408  77.9200000 113.0099408  47.2459408  77.3520000
 112.8429408  46.4799408  78.6470000  91.2429408  55.3819408  71.0890000
  91.8839408  54.7989408  70.6820000  90.4409408  54.8619408  71.1370000
  90.5589408  33.4369408  62.1060000  90.9039408  33.9419408  61.3700000
  89.6199408  33.3699408  61.9320000 115.4529408  53.0009408  66.3470000
 116.1639408  52.5919408  66.8410000 115.8259408  53.1649408  65.4810000
 109.8289408  42.1619408  64.8400000 110.2879408  42.3219408  65.6640000
 109.5549408  43.0299408  64.5450000 115.5609408  41.1319408  75.4750000
 115.1189408  40.5969408  76.1340000 114.8589408  41.6419408  75.0700000
  91.6959408  44.5629408  65.6540000  91.0739408  44.5129408  64.9270000
  91.7619408  43.6639408  65.9750000 116.7429408  33.6139408  77.8620000
 116.4659408  34.0829408  77.0750000 116.0469408  32.9769408  78.0200000
 111.6259408  49.4869408  61.2030000 112.4039408  49.0829408  61.5860000
 111.3859408  50.1789408  61.8190000 119.2179408  53.7659408  65.8380000
 119.3659408  54.3189408  65.0710000 119.4309408  52.8809408  65.5410000
 111.2669408  30.7559408  68.5830000 111.3999408  31.0999408  69.4660000
 110.5919408  30.0849408  68.6870000 117.0209408  30.6149408  83.3560000
 116.1119408  30.3729408  83.1770000 117.4589408  29.7839408  83.5400000
 117.0549408  50.3509408  73.5330000 116.2059408  50.0659408  73.1960000
 117.4329408  49.5649408  73.9270000 113.3629408  35.0449408  71.8150000
 113.7649408  35.8809408  71.5770000 114.1039408  34.4649408  71.9930000
 114.9759408  31.0289408  80.1130000 114.6729408  31.3969408  79.2830000
 114.4759408  31.4979408  80.7810000 112.5319408  53.9129408  76.2690000
 113.3199408  53.8259408  76.8050000 112.8589408  54.0669408  75.3830000
 116.3219408  37.4929408  83.9420000 116.3019408  36.7529408  84.5480000
 117.1049408  37.9849408  84.1900000  90.1739408  41.8329408  71.6060000
  90.4409408  41.6049408  72.4960000  90.8999408  42.3529408  71.2630000
 115.7369408  49.1459408  68.1800000 114.8499408  49.1279408  68.5390000
 116.1869408  48.4239408  68.6170000 106.6539408  39.5689408  67.1000000
 106.2859408  39.1019408  66.3490000 107.5579408  39.2609408  67.1550000
 108.3429408  55.7469408  66.0430000 108.8659408  54.9999408  65.7510000
 107.5969408  55.7659408  65.4440000  94.7929408  55.8129408  65.2480000
  94.3529408  56.6369408  65.4600000  94.0799408  55.1949408  65.0880000
 113.2419408  53.1659408  70.4920000 112.9709408  53.7249408  69.7630000
 112.5509408  52.5069408  70.5570000 115.7379408  56.5139408  76.0000000
 115.5399408  55.6189408  75.7260000 114.8859408  56.8929408  76.2160000
  90.0309408  36.3349408  67.2890000  89.4529408  35.8939408  66.6650000
  90.7089408  36.7369408  66.7450000  95.4109408  31.6389408  74.1010000
  96.3529408  31.5459408  73.9540000  95.1199408  32.2449408  73.4200000
 102.0409408  33.7889408  60.3090000 101.4489408  34.5119408  60.1020000
 102.7159408  33.8299408  59.6310000 114.4599408  32.0869408  77.5660000
 114.6979408  32.1839408  76.6440000 113.9199408  31.2969408  77.5930000
  98.5499408  34.3989408  79.4280000  99.1569408  34.0959408  80.1040000
  97.8149408  33.7869408  79.4750000 111.2339408  31.7299408  71.0500000
 111.0569408  31.7479408  71.9900000 111.0979408  32.6329408  70.7630000
 112.1169408  36.2239408  76.4610000 111.5759408  36.8179408  76.9810000
 111.6809408  36.1839408  75.6100000 117.9949408  31.5439408  69.2960000
 117.6689408  30.7739408  69.7610000 117.5859408  31.4939408  68.4320000
  94.1849408  49.2609408  75.5620000  93.2749408  49.4589408  75.3410000
  94.2369408  49.3929408  76.5080000 111.5719408  46.0879408  79.4610000
 111.2589408  46.5549408  80.2350000 112.0279408  45.3219408  79.8100000
 114.5889408  42.8039408  78.0590000 115.3309408  42.2919408  77.7360000
 114.9889408  43.5189408  78.5550000  92.6959408  34.0899408  81.8710000
  92.3059408  33.5869408  81.1560000  92.9999408  34.8979408  81.4560000
 119.8669408  52.4849408  83.7190000 120.5199408  52.0109408  83.2050000
 119.1229408  52.5889408  83.1250000 112.9719408  59.7709408  66.6800000
 112.3179408  60.1079408  67.2920000 113.6439408  59.3789408  67.2390000
 120.0319408  39.3559408  67.3470000 119.0959408  39.2539408  67.5190000
 120.1719408  38.9109408  66.5120000 102.1399408  37.4559408  72.2220000
 103.0799408  37.4309408  72.0430000 101.9669408  36.6499408  72.7080000
 112.2569408  42.3619408  71.4830000 111.7519408  43.1539408  71.2990000
 112.2079408  41.8529408  70.6740000 117.9939408  38.9349408  78.7130000
 118.8849408  38.7869408  79.0320000 117.4419408  38.4079408  79.2910000
  92.6369408  38.9269408  68.6340000  93.0599408  39.1289408  69.4690000
  91.7709408  39.3279408  68.7010000  91.9669408  38.2519408  78.4270000
  92.8179408  38.6559408  78.5950000  91.4089408  38.5619408  79.1400000
 117.5039408  35.9579408  72.6760000 117.6349408  35.1329408  72.2080000
 117.4329408  36.6169408  71.9850000  96.0659408  33.5049408  63.3350000
  95.7129408  34.3689408  63.5490000  95.3759408  33.0859408  62.8200000
 110.1629408  33.2489408  67.1740000 110.7889408  32.6829408  67.6270000
 109.4289408  33.3299408  67.7820000 106.8479408  59.6619408  70.6200000
 106.3209408  59.0759408  71.1630000 106.2789408  59.8849408  69.8840000
  95.8869408  40.2809408  65.3640000  95.6359408  40.8369408  66.1020000
  95.8729408  40.8659408  64.6070000 112.0509408  57.8479408  81.3780000
 112.2919408  57.3129408  80.6220000 112.4079408  58.7149408  81.1820000
 116.0049408  58.4509408  80.5770000 115.3879408  57.8689408  80.1320000
 115.6789408  59.3319408  80.3920000 105.9519408  45.9449408  60.6750000
 105.0699408  45.6069408  60.8280000 106.3909408  45.2529408  60.1800000
 112.1649408  37.7679408  68.6350000 113.0789408  37.4839408  68.6030000
 112.1279408  38.5239408  68.0490000 114.3869408  40.8979408  67.2380000
 114.6949408  41.3449408  68.0260000 115.0989408  41.0059408  66.6070000
 110.4669408  57.5979408  76.5020000 110.0149408  58.4079408  76.7400000
 109.9129408  56.9009408  76.8520000 107.1799408  54.4859408  71.5940000
 107.1339408  54.0919408  70.7230000 107.8769408  55.1389408  71.5260000
 117.1109408  37.9229408  70.7590000 116.6699408  38.6599408  71.1820000
 117.2859408  38.2279408  69.8680000 114.4309408  38.2329408  60.1660000
 114.9999408  38.8329408  59.6840000 114.9499408  37.9689408  60.9260000
 117.6649408  47.8339408  80.4340000 117.0099408  47.9209408  81.1270000
 117.7929408  48.7259408  80.1110000 110.4459408  35.7249408  65.9510000
 110.6899408  34.9389408  66.4390000 111.2809408  36.0999408  65.6680000
  94.0989408  47.2339408  80.9040000  93.5579408  47.6299408  80.2210000
  94.7849408  47.8809408  81.0720000 113.0409408  55.6989408  67.7480000
 112.2169408  56.1149408  67.4950000 113.0589408  54.8799408  67.2530000
 105.0709408  33.1099408  71.9730000 105.9309408  32.7019408  71.8700000
 104.5769408  32.4959408  72.5170000  91.2549408  36.8109408  74.1630000
  90.3669408  36.7379408  74.5100000  91.5479408  37.6809408  74.4330000
  91.2039408  48.3319408  68.1590000  91.7869408  48.4599408  68.9080000
  90.4139408  47.9419408  68.5330000 100.8509408  48.0429408  80.5640000
 101.5169408  47.8769408  79.8970000 100.6929408  47.1879408  80.9640000
 115.3289408  43.5029408  71.5810000 115.0329408  44.2309408  72.1270000
 116.1189408  43.1829408  72.0170000 117.1119408  57.8559408  74.3000000
 116.6299408  57.3489408  74.9530000 118.0099408  57.8809408  74.6300000
 114.7879408  32.1149408  65.8990000 114.1839408  31.3719408  65.9120000
 115.6579408  31.7159408  65.9040000 109.4179408  45.1679408  76.0930000
 110.2329408  44.6729408  76.0060000 109.6999408  46.0539408  76.3210000
 117.7659408  43.5989408  63.8470000 117.7389408  43.8419408  64.7720000
 117.9009408  44.4269408  63.3850000  95.1689408  44.5189408  76.3780000
  95.8409408  44.4369408  77.0540000  94.4199408  44.9079408  76.8290000
 114.5049408  33.7859408  68.3370000 114.6659408  33.1259408  67.6630000
 115.3689408  33.9629408  68.7110000 117.8919408  45.9599408  61.8140000
 117.0629408  45.4949408  61.6950000 118.2699408  46.0039408  60.9360000
 111.4209408  35.9589408  73.7260000 110.7449408  36.4539408  73.2630000
 112.0389408  35.6999408  73.0420000  94.4059408  40.8699408  61.0480000
  93.6999408  41.4429408  61.3470000  95.1239408  41.0339408  61.6600000
 107.9489408  47.1749408  71.2960000 107.9059408  46.2389408  71.0990000
 108.8179408  47.2979408  71.6800000 115.4809408  41.9639408  69.4060000
 115.1199408  42.5119408  70.1030000 116.2799408  41.5939408  69.7810000
 117.2379408  34.9699408  68.0610000 117.3909408  35.8909408  68.2740000
 117.5609408  34.8749408  67.1650000 106.7859408  48.4209408  61.6810000
 106.7219408  47.5299408  61.3370000 107.4129408  48.8559408  61.1040000
 112.8489408  43.5719408  79.9600000 113.5609408  43.2709408  79.3950000
 112.1069408  43.0129408  79.7290000 113.2589408  30.4689408  74.2250000
 113.7039408  29.7619408  73.7580000 113.9489408  31.1049408  74.4120000
  98.5139408  48.9249408  64.6940000  98.4449408  47.9949408  64.9100000
  97.8739408  49.0569408  63.9950000  90.9149408  42.1979408  63.5130000
  90.7669408  42.8599408  62.8380000  90.2449408  41.5339408  63.3490000
 106.2619408  35.6629408  71.8050000 107.1559408  35.3529408  71.9450000
 105.7269408  34.8699408  71.8260000 115.2609408  32.5219408  75.1500000
 116.1599408  32.1979408  75.2140000 115.1129408  32.6349408  74.2110000
 116.0369408  39.7699408  72.4210000 116.3529408  39.1019408  73.0300000
 115.0999408  39.8379408  72.6050000 113.0209408  38.4339408  63.5050000
 113.2149408  39.3699408  63.4500000 113.4379408  38.1499408  64.3190000
 108.3969408  31.7669408  64.5070000 108.1719408  31.0319408  65.0770000
 109.3529408  31.8069408  64.5340000 119.4079408  50.4649408  72.4830000
 118.5159408  50.4729408  72.8300000 119.2959408  50.4509408  71.5330000
 109.9099408  38.3669408  70.0660000 109.9099408  39.2509408  69.6990000
 110.6139408  37.9149408  69.6030000 112.3429408  47.8229408  73.7280000
 112.4789408  48.5569408  74.3260000 111.4959408  47.9999408  73.3180000
 108.5539408  48.9259408  84.6820000 108.7939408  48.2999408  85.3660000
 109.3529408  49.4279408  84.5250000  90.9789408  41.7839408  66.4660000
  90.8059408  41.5689408  65.5490000  90.8379408  40.9619408  66.9360000
 108.5449408  36.2349408  68.9460000 108.6869408  36.3049408  68.0020000
 108.8589408  37.0669408  69.2990000 107.5829408  32.1169408  71.6990000
 107.5359408  31.9249408  72.6360000 107.4419408  31.2719408  71.2740000
 113.0879408  36.0449408  62.2860000 113.1179408  36.9629408  62.5550000
 112.5769408  36.0479408  61.4770000 109.4299408  59.0179408  60.8690000
 110.3869408  59.0099408  60.8630000 109.1899408  58.4979408  61.6360000
 119.4029408  51.3029408  76.8030000 119.1189408  52.1149408  76.3830000
 120.2919408  51.4879408  77.1050000 119.9999408  33.3119408  68.7350000
 119.2879408  32.6869408  68.8720000 119.6239408  34.1599408  68.9690000
  97.9229408  30.9289408  67.0610000  98.3859408  31.4039408  67.7510000
  97.6119408  31.6119408  66.4670000 116.0629408  36.2019408  62.8730000
 116.7759408  36.4759408  62.2960000 115.4759408  35.7009408  62.3070000
 115.4119408  50.8149408  61.5320000 115.4999408  50.9999408  60.5970000
 116.2239408  50.3649408  61.7650000 118.3659408  35.4669408  79.3010000
 118.8039408  35.9929408  78.6320000 118.0599408  34.6899408  78.8330000
 110.9419408  34.3839408  77.7550000 110.5819408  33.9059408  77.0080000
 111.5239408  35.0359408  77.3640000 119.4049408  39.7769408  61.2160000
 119.7829408  39.6169408  60.3520000 118.8879408  38.9919408  61.4010000
 111.4199408  43.2069408  84.2540000 111.6209408  42.3409408  84.6100000
 111.2789408  43.0559408  83.3200000 119.1759408  40.3779408  82.4850000
 118.2839408  40.5879408  82.2080000 119.0939408  40.1619408  83.4140000
 117.5159408  41.6489408  78.8270000 117.5849408  40.6959408  78.7670000
 117.6049408  41.8379408  79.7610000 118.1189408  43.0759408  83.9840000
 118.7619408  42.6759408  84.5710000 117.4529408  43.4369408  84.5690000
 111.7639408  43.3609408  62.3840000 111.7739408  43.7069408  61.4920000
 110.9559408  42.8499408  62.4340000 118.0309408  55.7699408  60.2010000
 117.6519408  56.3839408  59.5710000 118.7909408  56.2309408  60.5560000
  92.9169408  40.2559408  82.9200000  92.3259408  40.8239408  82.4250000
  93.4999408  40.8599408  83.3800000 111.1939408  34.9999408  84.4080000
 110.3499408  35.2639408  84.7730000 111.2559408  34.0639408  84.5980000
 118.7599408  58.1839408  63.0480000 118.8759408  57.2849408  63.3560000
 119.4779408  58.3219408  62.4310000  92.6489408  37.0719408  83.3300000
  92.9159408  37.8839408  82.8980000  92.1039408  36.6239408  82.6820000
 112.4329408  54.4709408  60.8190000 111.6569408  54.3989408  61.3750000
 112.5059408  53.6149408  60.3970000 117.0089408  37.7539408  80.9100000
 117.1639408  37.5669408  81.8360000 116.1749408  37.3249408  80.7160000
 109.5569408  49.2589408  64.7920000 109.8279408  48.5009408  64.2750000
 109.5719408  49.9889408  64.1730000 116.9399408  40.5709408  65.5480000
 117.2969408  41.4359408  65.7460000 117.5429408  40.2049408  64.9000000
 112.1869408  37.3489408  83.2340000 112.6329408  37.2299408  82.3960000
 111.9849408  36.4599408  83.5270000 113.0549408  56.8219408  75.9560000
 112.1179408  56.8199408  76.1500000 113.1779408  56.0819408  75.3610000
 116.0829408  44.9759408  82.9120000 116.8299408  44.5689408  82.4730000
 116.1679408  44.7089408  83.8270000  91.7139408  34.7479408  64.2270000
  91.3929408  34.3309408  63.4270000  91.0859408  34.4889408  64.9010000
 116.7119408  58.8939408  61.2240000 117.5319408  58.5429408  61.5710000
 116.3319408  59.3829408  61.9540000 114.2559408  53.5429408  78.3680000
 114.2759408  52.7569408  78.9150000 115.1489408  53.6239408  78.0320000
 114.1759408  48.5089408  61.7660000 114.5339408  49.3739408  61.5650000
 114.8279408  48.1069408  62.3410000 115.2449408  45.1359408  79.2390000
 114.6809408  45.3399408  79.9860000 115.0279408  45.8009408  78.5860000
 117.8889408  32.9389408  60.7890000 117.1389408  32.3659408  60.9500000
 117.5709408  33.8159408  61.0000000 107.5889408  35.9449408  81.8650000
 107.9269408  35.0509408  81.9150000 108.2399408  36.4199408  81.3480000
 110.0679408  36.6019408  80.6770000 110.4109408  35.7399408  80.4420000
 110.8469408  37.1369408  80.8290000 119.4139408  33.1659408  76.0720000
 119.2369408  32.3849408  76.5970000 118.9069408  33.8589408  76.4960000
 107.8799408  37.6249408  84.1220000 107.7579408  36.6759408  84.0920000
 107.0159408  37.9709408  84.3480000 114.0009408  34.7069408  65.0710000
 113.8849408  34.5229408  64.1390000 114.2479408  33.8649408  65.4530000
 118.6979408  34.9809408  83.9730000 119.2289408  35.6649408  84.3820000
 119.2709408  34.2149408  83.9480000  99.8899408  41.8059408  77.1790000
 100.2009408  41.2239408  77.8720000 100.1229408  41.3559408  76.3660000
  92.2539408  45.9619408  84.7120000  91.4929408  45.4689408  84.4070000
  93.0069408  45.4519408  84.4130000 110.0029408  39.2039408  83.4090000
 110.8009408  38.6759408  83.4560000 109.3039408  38.6049408  83.6730000
 113.6059408  42.7209408  74.1930000 113.3069408  42.6279408  73.2890000
 113.8659408  43.6389408  74.2670000 113.0969408  37.0939408  80.7320000
 113.5719408  37.7899408  80.2780000 113.5829408  36.2959408  80.5220000
 111.2829408  34.2129408  70.2370000 112.1709408  34.4309408  70.5200000
 110.9569408  35.0169408  69.8310000  95.2779408  41.5559408  67.5480000
  94.8449408  40.9229408  68.1220000  95.5749408  42.2489408  68.1370000
  96.0519408  36.0389408  72.9900000  96.7619408  35.9259408  72.3580000
  95.9799408  36.9859408  73.1040000 116.9689408  56.1229408  82.1750000
 117.8909408  56.2139408  82.4190000 116.8059408  56.8519408  81.5770000
  90.5089408  39.7659408  73.8980000  89.8269408  39.7809408  74.5700000
  90.2249408  39.0889408  73.2830000 112.0069408  43.9469408  76.1180000
 112.6479408  43.3789408  75.6900000 112.4899408  44.3509408  76.8390000
  93.1369408  45.9089408  77.4420000  93.2879408  46.7359408  77.8990000
  92.3239408  46.0479408  76.9560000 114.1139408  33.7159408  81.1230000
 114.5879408  34.4759408  80.7840000 114.5419408  33.5189408  81.9560000
 103.7419408  36.4529408  75.6390000 104.2449408  36.8479408  74.9270000
 103.4279408  37.1979408  76.1520000  93.9139408  44.3159408  80.0960000
  93.3239408  45.0459408  80.2810000  93.8699408  44.2069408  79.1460000
 109.3529408  39.0949408  79.9650000 108.9699408  39.8979408  80.3180000
 109.1119408  38.4159408  80.5960000 107.2159408  32.2419408  74.2630000
 107.4569408  31.6839408  75.0030000 106.9959408  33.0849408  74.6600000
  96.1759408  33.6459408  83.8610000  97.0319408  33.4339408  84.2340000
  95.6269408  33.8449408  84.6190000  90.6509408  44.1239408  83.5250000
  89.7119408  43.9479408  83.5810000  90.9809408  43.4709408  82.9080000
  92.0539408  42.5049408  81.6720000  92.7779408  43.0489408  81.3630000
  91.3189408  42.7389408  81.1060000 117.4739408  38.2959408  67.3770000
 117.0789408  39.0559408  66.9490000 117.4529408  37.6089408  66.7110000
  94.6389408  38.2059408  60.3610000  94.5499408  39.1419408  60.5400000
  95.5799408  38.0399408  60.4160000  93.5789408  35.2939408  74.7230000
  94.2869408  35.7469408  74.2640000  92.8469408  35.9109408  74.7040000
 104.3679408  38.5949408  80.4910000 104.4269408  39.5469408  80.5680000
 104.3979408  38.4279408  79.5490000  92.4339408  59.4479408  81.3220000
  91.7669408  58.7629408  81.3040000  92.1439408  60.0829408  80.6670000
 109.6399408  47.0629408  81.6660000 110.2749408  47.2579408  82.3550000
 109.4069408  47.9179408  81.3040000 117.1349408  42.3819408  81.4320000
 116.3539408  41.8949408  81.6950000 117.7049408  42.3559408  82.2000000
  91.7099408  34.5589408  77.3620000  91.2679408  34.1129408  76.6390000
  91.0809408  35.2169408  77.6580000  93.7859408  33.1389408  65.5410000
  94.7399408  33.2159408  65.5740000  93.5029408  33.8839408  65.0110000
 112.3099408  40.3559408  81.7640000 111.7209408  41.1059408  81.6740000
 111.7629408  39.6659408  82.1410000 118.6129408  50.5529408  80.3810000
 119.2029408  50.8629408  81.0670000 118.5069408  51.3039408  79.7970000
 108.5159408  55.7009408  60.7170000 108.6129408  56.6029408  61.0230000
 109.1969408  55.5999408  60.0510000 114.3199408  45.3179408  73.4330000
 113.7379408  46.0469408  73.2200000 114.8819408  45.6559408  74.1310000
 112.5469408  45.5769408  64.2880000 111.8889408  46.0879408  63.8160000
 112.4899408  44.7009408  63.9070000 109.5539408  30.0589408  77.2370000
 109.8519408  30.3489408  76.3750000 108.6799408  30.4369408  77.3290000
 114.5779408  56.1839408  79.7680000 115.3119408  55.7339408  79.3490000
 113.8019408  55.8429408  79.3220000 111.9709408  59.7309408  64.2900000
 111.4919408  60.5529408  64.3860000 112.2929408  59.5359408  65.1700000
 109.7779408  53.9979408  73.5600000 110.2779408  54.1409408  72.7560000
 110.3799408  53.5269408  74.1360000 106.2369408  32.5929408  67.0360000
 106.4979408  31.7169408  66.7530000 107.0569408  33.0199408  67.2820000
 107.8549408  33.6489408  68.8230000 108.0219408  34.5789408  68.9790000
 107.6949408  33.2839408  69.6930000 110.3289408  54.1079408  62.8240000
 109.6049408  54.5969408  62.4350000 110.2499408  54.2699408  63.7640000
 111.6989408  30.0119408  79.4060000 112.3109408  29.7979408  78.7010000
 110.9559408  30.4209408  78.9620000 117.1489408  51.4149408  68.1260000
 117.0169408  51.9989408  68.8730000 116.3659408  50.8649408  68.1090000
 111.1139408  32.1109408  64.7390000 111.1109408  32.6599408  65.5240000
 111.5609408  32.6399408  64.0780000 112.0079408  40.1399408  76.2200000
 111.9829408  40.3189408  75.2790000 112.8879408  39.7949408  76.3750000
 106.6089408  48.0909408  73.3550000 106.7289408  47.5009408  72.6110000
 107.4469408  48.5439408  73.4390000 117.8639408  47.4319408  69.3610000
 117.7469408  47.2979408  70.3010000 118.3079408  48.2779408  69.2930000
  91.0329408  55.6039408  73.9710000  90.2089408  55.2399408  74.2930000
  91.2309408  55.0919408  73.1870000  91.9339408  59.6879408  78.6420000
  92.2469408  58.7839408  78.6550000  91.5109408  59.7829408  77.7880000
  91.1559408  48.4609408  80.0400000  90.2709408  48.7809408  79.8660000
  91.0349408  47.5459408  80.2950000  92.0799408  58.3339408  63.5080000
  91.6479408  58.7749408  62.7770000  92.4669408  59.0439408  64.0210000
 107.4589408  49.6149408  66.9330000 106.5709408  49.2699408  67.0270000
 107.7209408  49.3639408  66.0470000 116.6749408  47.5639408  73.5590000
 116.2789408  47.7839408  74.4030000 116.8119408  46.6169408  73.5990000
 109.9319408  53.5469408  65.4520000 109.4589408  52.7149408  65.4690000
 110.8459408  53.3059408  65.6030000 113.0439408  51.6259408  73.4910000
 112.5689408  51.6099408  72.6600000 113.9519408  51.4399408  73.2520000
 111.5259408  57.0239408  63.9340000 111.8329408  56.7029408  63.0860000
 111.8009408  57.9409408  63.9570000 112.5659408  53.1829408  66.2490000
 112.5139408  52.3989408  66.7960000 113.4839408  53.2299408  65.9820000
  92.7359408  53.2419408  81.7040000  92.8889408  53.6109408  80.8350000
  92.5469408  53.9999408  82.2570000 115.2289408  33.2469408  72.4100000
 114.8559408  32.6399408  71.7710000 116.0849408  33.4789408  72.0500000
  93.0529408  56.7679408  75.5720000  92.4119408  56.2939408  75.0430000
  93.1159408  57.6289408  75.1590000 114.1119408  51.8259408  63.7350000
 114.7569408  52.4489408  64.0690000 114.4369408  51.5849408  62.8680000
 115.3229408  46.5199408  63.7300000 115.4299408  45.8639408  63.0410000
 114.4889408  46.2979408  64.1450000 115.6729408  50.8899408  83.2500000
 115.9379408  51.6929408  82.8020000 115.0279408  50.4909408  82.6670000
 118.0719408  45.0429408  74.1250000 118.3279408  44.1539408  73.8810000
 118.7059408  45.6059408  73.6790000 111.4969408  47.6769408  68.9910000
 110.6869408  47.9649408  69.4120000 111.2069408  47.1699408  68.2330000
 111.3089408  51.2979408  70.9070000 110.3719408  51.3809408  71.0840000
 111.3559408  50.9219408  70.0280000 112.7679408  49.3119408  77.3790000
 112.3009408  50.0629408  77.0110000 113.4259408  49.6989408  77.9570000
 109.7129408  51.5399408  67.5910000 109.1179408  50.8719408  67.2500000
 110.5109408  51.0599408  67.8100000 113.7039408  47.7479408  70.5130000
 114.1529408  46.9339408  70.2860000 112.9529408  47.7799408  69.9200000
 117.4709408  55.8359408  66.5070000 117.7579408  54.9329408  66.6370000
 117.3959408  55.9299408  65.5570000 117.1539408  55.2229408  78.8610000
 117.2309408  54.5909408  78.1470000 117.9429408  55.7599408  78.7930000
 118.9979408  45.2499408  77.3840000 118.6679408  45.0439408  78.2580000
 118.5579408  44.6249408  76.8080000 107.0249408  52.7099408  77.6690000
 106.8809408  52.0149408  77.0260000 106.7759408  53.5139408  77.2140000
 115.5159408  32.1409408  62.2740000 114.6969408  32.6339408  62.2290000
 115.2789408  31.3189408  62.7030000 117.8379408  46.4779408  64.9610000
 117.1649408  46.4449408  64.2810000 118.2269408  47.3489408  64.8720000
 108.1619408  41.4479408  78.1310000 108.1129408  41.6889408  79.0560000
 109.0279408  41.7449408  77.8520000 101.7949408  34.1809408  75.4660000
 101.0579408  34.3869408  76.0420000 102.4969408  34.7619408  75.7580000
 114.6279408  59.7129408  63.2650000 113.6809408  59.5999408  63.3410000
 114.9819408  59.3039408  64.0550000 114.1549408  58.4689408  68.6710000
 114.9869408  57.9959408  68.6860000 113.5239408  57.8559408  69.0480000
 117.6299408  58.3429408  67.5860000 117.5669408  57.3909408  67.5050000
 117.5549408  58.5079408  68.5260000 116.7179408  53.2369408  77.1170000
 117.0469408  53.5299408  76.2670000 116.4409408  52.3329408  76.9690000
 118.6429408  53.4169408  62.1320000 119.5469408  53.7219408  62.2000000
 118.2299408  54.0239408  61.5180000 108.1019408  59.3339408  73.8490000
 108.8249408  59.9569408  73.9170000 108.5209408  58.5029408  73.6270000
  90.8829408  45.8929408  80.9960000  91.0199408  45.6469408  81.9110000
  90.0429408  45.4959408  80.7640000 119.7119408  57.0349408  78.1520000
 119.5509408  57.4989408  77.3300000 119.2639408  57.5589408  78.8150000
  97.1339408  53.6299408  77.5170000  96.9599408  54.4419408  77.0430000
  97.4829408  53.0339408  76.8540000  94.8129408  50.6049408  80.3340000
  94.8989408  51.5329408  80.5520000  94.8869408  50.1529408  81.1740000
 115.3029408  56.0099408  71.7730000 115.0519408  55.5969408  70.9470000
 114.6769408  56.7259408  71.8830000 105.4609408  53.4619408  63.0360000
 105.9439408  53.2799408  62.2300000 105.3659408  52.6069408  63.4560000
 103.5109408  57.9189408  75.3630000 104.4469408  57.8499408  75.5500000
 103.2639408  57.0499408  75.0470000 115.1669408  55.1589408  61.8110000
 114.2559408  54.8679408  61.8270000 115.3879408  55.2049408  60.8810000
 111.1539408  57.1659408  66.5480000 111.4189408  56.9389408  65.6570000
 111.5359408  58.0299408  66.7000000 106.0469408  34.5639408  75.7710000
 106.0809408  34.5099408  76.7260000 105.4529408  35.2939408  75.5940000
  92.8799408  57.4629408  72.2670000  92.0239408  57.0379408  72.2150000
  93.2679408  57.3299408  71.4030000 118.6919408  49.2009408  63.8620000
 119.5599408  48.8229408  63.7170000 118.1619408  48.8679408  63.1380000
 117.3199408  48.8899408  61.5420000 117.8129408  49.1749408  60.7720000
 117.3469408  47.9339408  61.5040000  90.1709408  55.8719408  63.6420000
  90.6029408  55.3299408  62.9810000  90.8439408  56.4929408  63.9200000
 111.9069408  50.2649408  68.2860000 111.7919408  49.3209408  68.3890000
 112.4119408  50.3589408  67.4790000 110.8209408  55.7819408  71.5460000
 110.6039408  55.9449408  70.6280000 110.7959408  56.6459408  71.9560000
 117.3569408  31.1799408  66.2670000 117.6309408  31.6629408  65.4870000
 118.0139408  30.4909408  66.3660000 108.4929408  50.8929408  71.3400000
 108.2899408  50.2629408  70.6490000 107.8709408  51.6069408  71.2050000
 117.5929408  58.9229408  70.4380000 117.4519408  59.3709408  71.2720000
 118.5019408  58.6269408  70.4740000  99.8979408  58.3239408  77.5680000
 100.5479408  57.6229408  77.5210000  99.0609408  57.8869408  77.4100000
  90.6229408  55.0849408  79.8260000  91.5509408  54.8679408  79.9130000
  90.5909408  55.7159408  79.1080000 119.5049408  39.6089408  63.9390000
 119.2369408  39.4409408  63.0360000 120.3389408  39.1489408  64.0320000
 114.9399408  58.5519408  72.8940000 115.6679408  58.0659408  73.2810000
 115.3499408  59.3119408  72.4820000 116.2609408  50.5759408  76.5330000
 115.9599408  49.7359408  76.1870000 117.1519408  50.4039408  76.8380000
  90.9209408  59.9589408  69.9480000  91.4189408  59.3979408  69.3520000
  90.0779408  60.0829408  69.5120000  90.1289408  30.2789408  66.1440000
  90.1339408  30.2069408  65.1890000  90.6739408  29.5509408  66.4420000
 110.1059408  56.3139408  68.9570000 110.3829408  56.3689408  68.0430000
 109.8789408  57.2129408  69.1940000 107.8029408  31.4979408  62.0150000
 107.8179408  31.3079408  62.9530000 107.9959408  30.6579408  61.5970000
 111.2849408  51.4409408  63.2030000 112.1909408  51.6019408  63.4660000
 110.9289408  52.3109408  63.0260000 114.8339408  48.1349408  75.5300000
 115.1179408  47.2749408  75.8380000 114.2629408  48.4619408  76.2250000
 115.9399408  53.0769408  70.1740000 115.0409408  52.8989408  70.4490000
 115.8779408  53.8789408  69.6550000  90.5509408  53.0329408  68.3860000
  90.1859408  53.4379408  67.6000000  89.8569408  53.1109408  69.0410000
 109.0939408  55.2559408  77.6310000 108.8449408  55.5209408  78.5160000
 108.5189408  54.5169408  77.4310000 114.6889408  56.4959408  83.9890000
 115.4609408  56.4079408  83.4300000 114.0209408  55.9579408  83.5630000
 109.7889408  57.3129408  83.2930000 110.5389408  57.1429408  82.7230000
 109.6029408  58.2449408  83.1720000 116.0789408  58.6559408  65.3270000
 116.5179408  58.9459408  66.1270000 116.5309408  57.8469408  65.0860000
 111.9989408  57.5469408  61.0180000 112.9239408  57.6119408  60.7810000
 111.7279408  56.6889408  60.6910000 107.6129408  50.7449408  63.2240000
 107.4149408  49.8939408  62.8320000 107.7729408  51.3209408  62.4770000
 118.7029408  53.2359408  80.3090000 119.5569408  53.6369408  80.1500000
 118.0819408  53.8059408  79.8540000 109.1839408  52.3919408  79.3730000
 108.8759408  52.0519408  80.2130000 108.3959408  52.4469408  78.8330000
 112.4529408  52.8319408  84.3870000 113.2899408  53.2969408  84.4070000
 111.9209408  53.3219408  83.7600000 119.3329408  50.1069408  69.6110000
 120.1389408  50.5079408  69.2850000 118.7129408  50.1949408  68.8870000
 119.7389408  31.2499408  82.7270000 119.9719408  30.5979408  82.0660000
 118.7969408  31.1349408  82.8560000 116.4519408  48.2429408  83.9800000
 116.5979408  49.0739408  83.5290000 115.5169408  48.0689408  83.8690000
  92.8429408  55.7119408  83.1490000  93.7689408  55.4969408  83.0340000
  92.8479408  56.5679408  83.5780000 118.0669408  45.0089408  80.1910000
 118.0739408  45.9439408  79.9830000 117.1889408  44.8459408  80.5340000
 119.9059408  58.0329408  81.8660000 119.3759408  58.3819408  82.5830000
 120.0419408  57.1129408  82.0930000 110.8229408  50.4389408  84.5460000
 111.4419408  51.1659408  84.6110000 110.8099408  50.2179408  83.6140000
  93.7959408  32.6399408  61.5360000  93.1589408  33.0979408  60.9870000
  93.2689408  32.0539408  62.0780000 114.2699408  59.2149408  84.6630000
 114.2869408  58.9489408  85.5820000 114.4699408  58.4149408  84.1780000
 110.7379408  33.9019408  80.2470000 110.8629408  33.9519408  79.3000000
 111.6089408  34.0529408  80.6130000 119.0199408  58.8129408  84.3330000
 119.8619408  59.1639408  84.6250000 118.8459408  58.0819408  84.9260000
 116.1579408  56.4039408  63.9090000 115.6669408  57.2129408  64.0520000
 115.8099408  56.0549408  63.0890000 107.0399408  58.4119408  84.8180000
 107.5809408  58.5059408  85.6020000 107.1749408  57.5059408  84.5410000
 113.6199408  54.9529408  82.0760000 112.8519408  54.5989408  81.6270000
 114.1499408  55.3379408  81.3780000 111.2529408  53.5169408  80.7880000
 110.5179408  53.0819408  80.3570000 110.8559408  53.9929408  81.5170000
  93.1729408  59.6979408  83.8650000  92.8949408  59.4999408  82.9710000
  93.6089408  60.5479408  83.7990000 114.4219408  39.4159408  80.1160000
 115.2529408  39.6309408  80.5400000 113.7539408  39.7569408  80.7110000
  92.7039408  51.1609408  60.5350000  91.8629408  51.6189408  60.5440000
  92.8899408  51.0209408  59.6060000 108.5739408  56.5729408  79.9790000
 109.3969408  57.0059408  80.2050000 107.9349408  56.9379408  80.5900000
 113.9579408  31.6669408  83.3620000 113.0839408  31.9459408  83.6370000
 114.0009408  30.7409408  83.6010000 113.5929408  50.4459408  66.1030000
 114.4549408  50.0469408  66.2220000 113.6239408  50.8299408  65.2270000
 111.0189408  51.9559408  77.3460000 110.6409408  52.0609408  78.2200000
 111.4569408  52.7889408  77.1720000 119.3579408  36.4659408  81.7420000
 118.9689408  36.1709408  80.9190000 119.0259408  35.8529408  82.3980000
  95.0389408  50.2599408  83.3180000  95.4329408  50.8059408  83.9980000
  94.2329408  49.9279408  83.7140000 112.3159408  30.6029408  60.0200000
 112.8489408  30.3259408  60.7650000 112.9519408  30.8169408  59.3370000
  92.0639408  32.4419408  79.6400000  92.0359408  33.1009408  78.9460000
  91.3919408  31.8059408  79.3950000 106.0279408  59.2599408  78.5900000
 105.0909408  59.1729408  78.4130000 106.1359408  58.9249408  79.4800000
 110.3859408  54.2079408  83.2040000 110.0829408  55.1069408  83.3300000
 109.8389408  53.6859408  83.7910000  90.8689408  36.2169408  60.9050000
  91.1979408  36.6709408  60.1290000  91.6129408  36.1979408  61.5060000
 100.0009408  56.2329408  81.9690000 100.8279408  55.7619408  82.0740000
 100.2609408  57.1449408  81.8330000 103.1139408  59.2469408  78.1040000
 103.4209408  58.6579408  77.4150000 102.3449408  59.6749408  77.7280000
  94.1209408  73.6749408  13.7610000  94.0209408  74.4239408  14.3480000
  94.6659408  73.0579408  14.2490000 109.4019408  77.0039408   3.4620000
 109.3069408  76.1259408   3.8320000 108.6369408  77.1089408   2.8970000
 111.2879408  65.2629408  29.9310000 110.5409408  64.9539408  30.4440000
 110.9199408  65.9259408  29.3470000  96.9639408  87.2739408   4.1330000
  96.2589408  86.7169408   4.4630000  96.9889408  88.0129408   4.7410000
 111.1249408  61.1489408  21.7350000 110.9649408  60.2999408  21.3230000
 111.6349408  61.6379408  21.0890000  96.7109408  78.7099408  21.4700000
  96.3839408  79.3649408  22.0880000  97.6529408  78.8729408  21.4250000
 101.8849408  71.9679408  12.0810000 101.2899408  71.2449408  12.2800000
 102.7569408  71.5759408  12.1090000  95.8789408  66.9689408   8.7010000
  95.4139408  66.1719408   8.4480000  95.9029408  67.4959408   7.9020000
 105.1049408  77.8279408  15.6050000 104.2939408  77.6459408  15.1300000
 105.7899408  77.7719408  14.9380000  90.6359408  74.0729408   8.5360000
  89.8129408  74.3929408   8.1640000  90.9089408  73.3719408   7.9450000
 108.8559408  78.6129408   9.2840000 108.4689408  78.1719408  10.0410000
 108.1489408  79.1559408   8.9360000  99.0639408  68.6819408  17.8260000
  98.4579408  68.2489408  18.4280000  99.3939408  67.9759408  17.2700000
 101.2259408  71.3479408   5.7040000 100.6419408  71.7979408   6.3140000
 101.6789408  70.6969408   6.2400000 107.4669408  75.2269408  17.9080000
 107.9479408  75.1439408  18.7320000 108.1319408  75.1079408  17.2300000
 112.0799408  69.5039408   6.3360000 111.9909408  69.7379408   5.4120000
 112.7389408  70.1109408   6.6740000  95.6149408  73.6859408   8.9500000
  95.7649408  73.7169408   9.8950000  94.7539408  74.0859408   8.8300000
 119.3079408  78.9599408  15.2020000 119.6479408  79.5329408  15.8900000
 119.8979408  79.0979408  14.4610000 102.9309408  85.5519408  14.1980000
 103.8639408  85.3599408  14.1090000 102.5239408  85.1209408  13.4470000
 118.0369408  65.5629408   5.5490000 117.0969408  65.6829408   5.4130000
 118.2159408  64.6789408   5.2300000 108.3629408  81.3589408   0.6810000
 107.7089408  82.0489408   0.5670000 108.2789408  80.8169408  -0.1030000
 100.6849408  75.9839408   6.6650000 101.1339408  76.8249408   6.7490000
  99.8769408  76.0929408   7.1670000 108.4319408  64.8569408  25.0460000
 108.1149408  64.5139408  25.8810000 108.3719408  64.1159408  24.4430000
 118.7999408  69.9389408  15.7730000 117.8609408  69.9999408  15.5990000
 118.8569408  69.5959408  16.6650000 107.9779408  74.4559408  10.6650000
 107.2519408  74.3639408  10.0480000 107.7039408  73.9559408  11.4340000
 103.5299408  74.6779408   0.5350000 102.9009408  73.9769408   0.7060000
 103.0779408  75.2629408  -0.0730000 106.9329408  82.0279408  13.3670000
 107.2779408  82.9039408  13.1980000 107.6629408  81.4399408  13.1730000
 101.7599408  83.1179408   8.5430000 101.6899408  83.8819408   7.9720000
 102.0759408  82.4179408   7.9710000 104.5309408  86.0489408   1.8910000
 105.1549408  86.0429408   1.1650000 104.9719408  85.5639408   2.5890000
  91.5889408  67.8679408   5.1380000  91.9129408  67.0799408   4.7030000
  92.3749408  68.2939408   5.4810000  94.3779408  61.6949408  16.6380000
  93.4469408  61.8319408  16.4640000  94.7679408  61.5709408  15.7730000
 101.0189408  62.1809408  18.1460000 100.7569408  63.1019408  18.1390000
 101.6919408  62.1279408  18.8240000 105.1549408  60.6799408   8.8720000
 104.7649408  61.4279408   8.4200000 105.0899408  59.9599408   8.2450000
 105.4189408  74.0349408  13.0950000 104.8099408  73.9809408  13.8320000
 104.8679408  74.2559408  12.3440000  96.8749408  86.9259408   9.7580000
  97.0919408  87.8089408  10.0560000  97.0169408  86.9499408   8.8120000
 118.5349408  75.5709408   7.6430000 118.4489408  76.1489408   6.8850000
 118.1879408  76.0809408   8.3750000  98.3539408  66.3839408   3.5020000
  99.0179408  66.9059408   3.0520000  97.9879408  66.9769408   4.1590000
 114.3849408  69.4109408  17.3650000 114.7209408  68.5179408  17.2950000
 114.2909408  69.5589408  18.3060000  97.7939408  73.7699408   7.0920000
  97.1589408  73.5089408   7.7590000  98.3649408  73.0079408   6.9930000
  99.0859408  62.8069408  12.3010000  99.2659408  63.2629408  11.4790000
  99.7729408  63.1059408  12.8980000 105.8509408  73.9929408   9.0110000
 105.1649408  74.5659408   8.6690000 105.4019408  73.1709408   9.2080000
  97.6489408  77.3009408  12.5020000  97.1329408  77.8939408  13.0490000
  97.6139408  76.4609408  12.9600000 112.4549408  63.6049408   2.6640000
 111.6819408  63.5749408   2.1000000 112.7979408  64.4919408   2.5530000
 111.2289408  80.5009408  14.9470000 110.8759408  81.0379408  15.6570000
 111.9479408  81.0209408  14.5870000 100.4099408  85.8839408  26.7950000
 100.4019408  86.2829408  25.9250000  99.6159408  86.2129408  27.2170000
 101.1919408  86.2969408   1.5580000 101.2509408  87.2469408   1.6600000
 101.6389408  85.9449408   2.3270000  94.6869408  63.6109408  12.3470000
  93.8339408  63.9499408  12.0730000  95.2309408  64.3909408  12.4540000
 101.3659408  80.8169408  12.9800000 101.3449408  81.5859408  12.4090000
 102.2869408  80.5579408  12.9990000 105.5709408  64.5019408  23.2080000
 106.1229408  65.1429408  22.7600000 105.2669408  63.9189408  22.5130000
 104.5329408  79.5259408   7.8070000 104.0209408  78.9609408   8.3850000
 103.9069408  80.1799408   7.4950000  94.9169408  74.0799408   6.0540000
  95.2429408  73.2809408   6.4690000  94.3959408  74.5079408   6.7330000
 101.9419408  64.9309408  18.4310000 102.8109408  65.3169408  18.3240000
 101.7659408  64.9919408  19.3700000  92.9999408  83.7209408   4.9930000
  92.5599408  83.1309408   5.6050000  93.7909408  83.2499408   4.7310000
  99.3909408  65.9979408  13.5600000  98.4679408  65.8209408  13.7410000
  99.5449408  65.6099408  12.6990000  96.4589408  79.0469408  14.2110000
  95.7969408  78.9559408  14.8960000  97.0899408  79.6709408  14.5690000
 102.7269408  64.7419408  13.0350000 103.5559408  64.2759408  12.9230000
 102.3699408  64.4009408  13.8560000 100.9189408  75.5149408  11.9010000
 100.0709408  75.1079408  11.7250000 100.7289408  76.4519408  11.9560000
 101.2779408  68.6519408   9.3500000 101.3409408  67.9429408   9.9910000
 100.6729408  69.2789408   9.7440000  97.3769408  88.8119408   1.6800000
  96.6809408  88.2869408   1.2850000  97.2869408  88.6599408   2.6210000
 105.6899408  78.6069408   4.5490000 105.8669408  78.6029408   3.6090000
 106.2479408  77.9129408   4.9010000  96.0069408  60.8799408   4.4630000
  96.8559408  60.4709408   4.2940000  96.1609408  61.8149408   4.3310000
  99.4119408  68.7209408   6.5640000  99.9009408  68.4549408   7.3430000
 100.0189408  69.2819408   6.0810000 100.9679408  78.3959408  15.9660000
 101.6029408  77.8829408  15.4660000 100.1389408  77.9329408  15.8490000
  99.0729408  70.0809408   9.9790000  99.3089408  70.3209408  10.8750000
  98.1399408  69.8699408  10.0250000  98.6629408  83.0849408   5.7270000
  99.1639408  82.7029408   6.4480000  99.3049408  83.2099408   5.0280000
 102.1909408  63.0269408   6.6490000 102.5829408  63.5069408   7.3790000
 102.8259408  62.3399408   6.4440000  92.7639408  70.3209408  15.9390000
  92.1979408  70.7929408  15.3280000  92.1579408  69.8679408  16.5260000
  93.7929408  65.9289408  18.5460000  94.5359408  65.3939408  18.2680000
  93.0419408  65.5539408  18.0850000  97.2649408  65.4869408  10.7700000
  96.6499408  66.0649408  10.3180000  97.6409408  64.9459408  10.0760000
  94.4899408  64.3149408   8.6110000  93.8189408  63.6769408   8.8510000
  94.7519408  64.0669408   7.7250000 108.2059408  71.1969408  11.0920000
 108.7899408  71.1579408  10.3350000 107.3289408  71.0939408  10.7250000
 102.6159408  62.7419408   2.6460000 102.2479408  63.1119408   1.8440000
 103.2749408  63.3789408   2.9240000 113.6789408  79.2509408  25.6230000
 112.9449408  78.9459408  26.1550000 114.0749408  79.9529408  26.1400000
  93.9959408  70.0319408  19.2360000  94.7059408  69.4889408  18.8920000
  94.1359408  70.8909408  18.8370000 103.6049408  69.6929408   3.1680000
 104.0819408  68.9459408   3.5280000 104.2209408  70.4239408   3.2310000
 100.6809408  71.2849408   0.4750000 100.9629408  71.9649408  -0.1370000
 100.5939408  71.7389408   1.3140000  96.1979408  88.7859408   7.3920000
  95.6229408  89.3219408   7.9370000  96.9389408  89.3569408   7.1890000
 105.6389408  66.6119408   8.9870000 105.6199408  66.6119408   9.9440000
 106.5409408  66.8459408   8.7660000 106.1629408  80.3279408   9.8410000
 105.8969408  80.1039408   8.9500000 105.7949408  79.6309408  10.3840000
 108.8369408  79.6889408  13.6890000 109.6529408  79.8079408  14.1740000
 109.0429408  79.9709408  12.7980000  97.3569408  74.9479408  14.1060000
  96.7409408  74.6609408  14.7800000  97.7119408  74.1349408  13.7450000
 112.1589408  71.9809408   8.6940000 112.2029408  72.9319408   8.6020000
 112.8179408  71.6489408   8.0840000  91.5759408  61.8369408  12.3790000
  91.6699408  61.3979408  11.5340000  91.7809408  62.7539408  12.1980000
  99.7979408  73.5629408  20.7020000  99.9119408  72.6129408  20.6900000
 100.2249408  73.8659408  19.9000000 102.6309408  73.1459408  14.3340000
 102.2629408  73.3379408  13.4710000 102.9819408  72.2589408  14.2530000
 100.1429408  68.5439408   2.9460000 100.7999408  68.6049408   2.2530000
 100.5939408  68.8529408   3.7320000  92.9149408  76.4549408  14.3630000
  93.5279408  77.1049408  14.7050000  92.2449408  76.3749408  15.0420000
 102.5159408  69.3919408   7.0440000 102.9239408  68.9559408   6.2950000
 102.6179408  68.7729408   7.7670000 110.6819408  74.5549408  10.8580000
 110.4699408  74.9719408  11.6930000 109.8309408  74.3559408  10.4670000
 108.2509408  70.8129408  27.5970000 107.9399408  70.8729408  26.6940000
 109.1989408  70.9269408  27.5330000  95.0659408  72.1979408  18.1450000
  95.8319408  71.7159408  17.8330000  94.6889408  72.5859408  17.3550000
  94.4699408  66.9909408  21.0950000  94.3759408  66.7169408  20.1820000
  94.4599408  67.9469408  21.0610000 106.7989408  68.8369408  21.9130000
 106.1259408  68.2629408  21.5470000 107.3839408  68.2479408  22.3890000
 107.3339408  61.3149408  17.3720000 107.1459408  62.1649408  17.7700000
 106.5919408  60.7639408  17.6200000  94.3569408  84.6489408  13.1330000
  95.1819408  85.0809408  12.9100000  93.8739408  85.2999408  13.6410000
  96.0859408  74.8579408  11.4430000  95.4669408  75.3769408  10.9300000
  95.9959408  75.1919408  12.3360000 103.4409408  76.1729408   8.5040000
 103.3789408  75.9409408   7.5780000 102.7799408  76.8539408   8.6260000
  98.5019408  64.1379408   8.6120000  98.8629408  64.4539408   7.7840000
  98.9809408  63.3279408   8.7890000  99.2219408  89.9579408  19.5540000
  99.1209408  89.3189408  18.8490000  99.7729408  90.6449408  19.1780000
  95.8979408  86.1729408  15.7840000  94.9769408  86.4009408  15.6590000
  96.2559408  86.1269408  14.8980000  94.1719408  68.0399408   6.5580000
  93.5999408  68.3309408   7.2680000  94.3229408  68.8259408   6.0330000
 110.9309408  68.1219408  17.8530000 110.4899408  68.4399408  18.6410000
 111.2959408  68.9089408  17.4480000  93.5469408  89.1949408  14.3880000
  93.4529408  88.7309408  13.5560000  94.0779408  89.9629408  14.1760000
  97.6459408  75.5889408   0.5610000  98.1379408  74.9059408   1.0160000
  98.1499408  76.3889408   0.7110000  99.7719408  62.8839408   5.6410000
 100.6209408  62.7349408   6.0590000  99.7999408  62.3549408   4.8440000
  99.0259408  76.3989408  15.6100000  98.7289408  76.0099408  16.4320000
  98.4029408  76.0809408  14.9560000 114.9449408  70.7089408  22.4340000
 114.4059408  70.1399408  22.9830000 114.3479408  71.3989408  22.1430000
 102.9919408  66.0789408  20.9050000 103.2669408  66.9929408  20.8340000
 103.4549408  65.7489408  21.6750000 105.0069408  67.1169408  28.0480000
 105.2319408  67.0419408  28.9750000 104.1499408  66.6969408  27.9740000
 109.7759408  77.0209408   6.7930000 109.6259408  77.7959408   6.2530000
 109.1299408  77.0889408   7.4960000 114.9269408  75.3199408   9.5870000
 115.3159408  74.5869408  10.0650000 115.3279408  75.2809408   8.7190000
  95.7419408  71.5499408  12.2860000  95.5099408  71.7689408  13.1890000
  96.5849408  71.9799408  12.1450000 119.0709408  62.3679408  13.5800000
 119.1899408  62.7229408  14.4610000 119.9599408  62.2269408  13.2550000
 105.3469408  67.8619408  13.5700000 105.5059408  67.1419408  12.9600000
 106.2199408  68.1279408  13.8590000 103.9419408  87.7469408  11.2050000
 103.6119408  87.6369408  12.0970000 103.2129408  88.1429408  10.7270000
  92.4759408  73.4329408  11.5170000  92.9669408  73.3179408  12.3310000
  92.3929408  74.3819408  11.4200000  94.0809408  70.9719408  10.1910000
  93.3579408  71.5829408  10.3280000  94.6869408  71.1519408  10.9110000
  92.4699408  62.2689408   9.4860000  91.9209408  63.0069408   9.2190000
  91.8819408  61.5139408   9.4670000  93.0199408  76.0899408  11.5960000
  92.9749408  76.1599408  12.5500000  93.1089408  76.9939408  11.2930000
 102.5739408  74.1909408  16.7410000 102.6879408  73.7449408  15.9010000
 103.3929408  74.6689408  16.8720000 105.7109408  72.0629408  28.0250000
 106.5479408  71.6029408  28.0980000 105.9129408  72.9669408  28.2670000
  99.4949408  75.9309408   3.8740000  99.7659408  75.7989408   4.7830000
  99.9059408  76.7569408   3.6190000  98.0449408  78.2839408  17.2700000
  97.8129408  77.5769408  17.8720000  98.2419408  77.8409408  16.4450000
  98.0199408  61.0509408  14.0630000  98.1869408  61.8039408  13.4960000
  98.5849408  61.1939408  14.8240000 102.3299408  83.4389408   4.0320000
 101.5709408  82.9229408   3.7610000 103.0749408  83.0059408   3.6160000
  93.8559408  88.2669408   6.1100000  93.5329408  89.1219408   5.8250000
  94.7399408  88.4389408   6.4320000 108.9909408  68.3469408   5.9690000
 109.9089408  68.3779408   6.2400000 108.8449408  67.4349408   5.7200000
  95.8029408  76.0779408   4.3120000  96.5949408  75.6419408   3.9980000
  95.6179408  75.6609408   5.1540000 105.6349408  71.6509408   3.7230000
 106.4549408  71.1739408   3.8460000 105.4639408  72.0589408   4.5730000
 103.6209408  75.0579408  11.2560000 102.8359408  75.3699408  11.7060000
 103.5009408  75.3309408  10.3470000  96.7349408  70.4089408  16.9120000
  97.6709408  70.2119408  16.8740000  96.3309408  69.5979408  17.2210000
  99.1019408  79.7299408  22.1000000  99.8669408  79.3959408  21.6300000
  99.3469408  80.6199408  22.3550000  98.8879408  80.4159408   1.5990000
  98.2829408  79.7779408   1.9770000  98.7719408  81.2019408   2.1330000
 103.4439408  60.5639408   5.1250000 104.2609408  60.5429408   5.6220000
 103.7179408  60.5099408   4.2090000  98.1309408  77.3219408   9.6840000
  98.1119408  78.2399408   9.4110000  97.9969408  77.3509408  10.6310000
 101.8609408  68.8709408   0.8180000 101.4729408  69.7019408   0.5460000
 102.8049408  69.0259408   0.7920000 104.0549408  80.7059408  19.8650000
 103.1819408  80.5199408  20.2090000 104.1139408  80.1809408  19.0660000
  98.7819408  74.8269408  10.5120000  97.8989408  74.6719408  10.8490000
  98.7299408  75.6859408  10.0920000 115.7759408  75.5769408  15.5950000
 116.5949408  75.4519408  15.1160000 115.8309408  74.9639408  16.3280000
 104.7319408  65.0299408   6.7360000 105.2879408  64.2539408   6.6670000
 105.2679408  65.6689408   7.2060000 104.8019408  75.4929408  16.8610000
 104.9129408  76.3009408  16.3600000 105.6729408  75.3059408  17.2110000
 117.4529408  72.4809408  12.6510000 116.9679408  71.6609408  12.7380000
 118.3159408  72.2169408  12.3320000 109.8039408  70.9529408   8.8190000
 110.7069408  71.2619408   8.7410000 109.2889408  71.5889408   8.3220000
 103.6759408  72.0399408   8.3110000 102.9579408  72.4469408   8.7970000
 103.3909408  71.1369408   8.1740000  94.4319408  59.9699408   9.1520000
  94.9539408  60.3289408   9.8690000  93.7079408  60.5879408   9.0490000
  93.1979408  75.2869408   7.9950000  92.5999408  75.4139408   7.2590000
  92.7259408  74.7069408   8.5910000 103.4919408  70.2479408  15.4210000
 104.1179408  70.9619408  15.5410000 104.0109408  69.5349408  15.0460000
 118.8019408  66.7519408  15.1170000 118.5949408  66.3399408  14.2790000
 117.9779408  67.1509408  15.3980000  96.3509408  72.5299408  20.8020000
  95.7639408  72.6359408  20.0530000  96.8079408  73.3679408  20.8690000
  92.1939408  62.4329408  15.0200000  91.9859408  62.0149408  14.1840000
  92.7589408  63.1699408  14.7850000 110.3539408  61.1919408  14.3940000
 111.2449408  61.0649408  14.0680000 110.3279408  62.1089408  14.6690000
 102.9529408  78.1909408   4.7110000 102.8259408  78.4779408   5.6150000
 103.8859408  78.3269408   4.5450000 101.2079408  73.2309408   9.6310000
 101.4929408  73.1859408  10.5430000 100.4689408  73.8389408   9.6400000
  95.2889408  76.5969408   1.2440000  96.1979408  76.4009408   1.4730000
  95.0949408  76.0109408   0.5130000  95.9609408  61.2959408  10.8390000
  96.7089408  61.8909408  10.8830000  95.2019408  61.8499408  11.0230000
 104.0369408  69.3019408  10.0320000 103.0859408  69.2279408   9.9500000
 104.3769408  68.5189408   9.5980000 103.8409408  75.9929408  19.9150000
 103.3829408  75.6059408  19.1690000 104.1529408  76.8389408  19.5910000
 107.9259408  73.8949408  14.1400000 106.9729408  73.9149408  14.2200000
 108.2449408  74.1439408  15.0080000 107.9639408  64.7779408   0.3340000
 107.0519408  65.0459408   0.4500000 108.1979408  64.3589408   1.1630000
  96.0819408  71.7559408   3.1260000  95.2619408  72.2489408   3.0890000
  96.7199408  72.3779408   3.4750000 110.7849408  71.9599408  17.6010000
 111.3309408  71.2469408  17.2700000 110.9109408  72.6709408  16.9720000
 106.0959408  70.7469408   9.5820000 105.3069408  70.3579408   9.9590000
 106.3329408  70.1619408   8.8630000 101.8799408  71.9409408   3.1400000
 101.5959408  71.9629408   4.0530000 102.2839408  71.0799408   3.0340000
 100.6029408  78.1769408  12.3180000  99.6709408  78.0139408  12.4610000
 100.6839408  79.1309408  12.3230000 106.8019408  80.5669408  15.9690000
 107.5409408  79.9729408  15.8380000 106.7199408  81.0359408  15.1380000
  96.3819408  63.8779408   6.2780000  96.8239408  64.1609408   7.0780000
  96.7769408  64.4079408   5.5850000 107.8219408  70.6709408  24.7140000
 107.0509408  70.2079408  24.3860000 108.5589408  70.2549408  24.2680000
 110.9929408  76.8169408   1.4860000 111.3499408  77.6909408   1.3270000
 110.4049408  76.9299408   2.2320000 117.1529408  73.0869408  16.5300000
 117.5009408  72.5009408  17.2020000 116.4709408  72.5749408  16.0950000
 118.4819408  70.9349408   9.6410000 118.8959408  71.1749408  10.4700000
 118.9019408  71.4979408   8.9910000 104.8989408  86.5689408   8.8670000
 104.8359408  86.8249408   9.7880000 104.8469408  85.6129408   8.8800000
  96.4319408  69.2409408   9.6680000  95.6539408  69.7959408   9.6110000
  96.1929408  68.4429408   9.1960000 107.9739408  70.1959408   4.3400000
 108.5639408  70.9399408   4.4650000 108.2259408  69.5729408   5.0210000
 104.5639408  71.3319408  12.5050000 105.3129408  71.9219408  12.4160000
 104.8419408  70.5249408  12.0710000  95.8949408  79.3489408  10.4970000
  95.2319408  79.5939408  11.1420000  95.4229408  78.8129408   9.8600000
 100.5329408  64.8369408  11.0850000 100.4469408  65.5079408  10.4070000
 101.3799408  65.0149408  11.4930000  98.3729408  83.4639408  13.1860000
  99.1639408  83.9339408  12.9220000  97.6539408  83.9979408  12.8490000
  98.0019408  73.8009408   4.2870000  98.6839408  74.4149408   4.0160000
  97.9259408  73.9279408   5.2330000  98.5919408  80.0079408  11.6570000
  97.6919408  79.6829408  11.6220000  98.5009408  80.9549408  11.7650000
  98.5059408  89.5499408   4.7200000  99.2599408  89.8159408   4.1930000
  98.6619408  89.9459408   5.5770000  94.0379408  87.2559408   9.9530000
  94.9729408  87.0479408   9.9550000  93.9999408  88.1869408   9.7350000
 107.8569408  65.7969408   6.3200000 108.7739408  65.6119408   6.1180000
 107.3679408  65.4069408   5.5960000 114.8209408  67.4299408   8.6100000
 114.9309408  66.7309408   7.9650000 115.4989408  68.0679408   8.3900000
  99.6499408  71.8419408   7.8760000 100.4039408  72.2779408   8.2730000
  99.2779408  71.3139408   8.5820000 107.8409408  71.3329408  21.0730000
 107.5779408  70.4969408  21.4570000 107.0239408  71.8229408  20.9800000
 106.4069408  63.6289408  19.0480000 107.1099408  64.2789408  19.0450000
 106.1969408  63.5069408  19.9740000 101.6449408  68.1269408  23.6070000
 101.9199408  67.4939408  24.2710000 101.9309408  68.9729408  23.9510000
 108.3389408  68.6359408  17.0160000 108.1949408  69.4509408  17.4970000
 109.2549408  68.4159408  17.1850000  97.8239408  69.7049408   1.9020000
  98.6989408  69.3949408   2.1340000  97.3699408  69.7939408   2.7400000
 103.4879408  68.3599408  17.7820000 102.5719408  68.4729408  18.0380000
 103.7179408  69.1799408  17.3450000 117.1329408  73.4899408   6.5760000
 116.2129408  73.7239408   6.4540000 117.5309408  74.2739408   6.9540000
  95.3919408  69.8369408  21.5440000  94.4879408  70.0839408  21.7380000
  95.8819408  70.6569408  21.5990000 105.6989408  73.6459408  21.5090000
 104.9289408  74.2119408  21.4530000 105.7449408  73.3939408  22.4310000
  95.3759408  65.8509408   4.5400000  95.9379408  66.5929408   4.3170000
  95.1269408  66.0039408   5.4520000 106.1989408  72.7839408  24.3270000
 106.9519408  72.3809408  24.7590000 105.5079408  72.1229408  24.3830000
 110.3079408  72.6819408  21.5200000 109.5659408  72.7069408  22.1230000
 110.0339408  73.2229408  20.7790000 113.5869408  71.2759408   3.3410000
 112.6949408  71.6219408   3.3230000 114.1119408  71.9439408   2.9000000
  97.8799408  86.0279408  23.7110000  98.5289408  86.2299408  23.0370000
  97.0729408  85.8609408  23.2240000 108.4169408  74.7709408  20.7260000
 108.8399408  75.1919408  21.4750000 107.5249408  74.5919408  21.0240000
 104.9759408  75.1649408  23.9550000 105.6309408  75.7189408  23.5300000
 105.4869408  74.4979408  24.4130000 110.1269408  77.4139408  17.2570000
 110.8569408  78.0169408  17.1180000 110.2649408  77.0689408  18.1390000
 107.7229408  69.0149408  14.5310000 108.2079408  69.8399408  14.5330000
 107.7629408  68.7109408  15.4380000 107.0589408  64.2909408   3.6940000
 107.3229408  63.4279408   4.0130000 106.3329408  64.1129408   3.0950000
 102.1429408  73.0499408  23.4810000 102.7959408  73.1569408  22.7890000
 101.8279408  73.9369408  23.6530000  99.2999408  64.7489408  16.6790000
  98.4779408  64.7659408  16.1890000  99.0309408  64.7099408  17.5970000
 100.2849408  69.8869408  12.5980000 100.8409408  69.1149408  12.4900000
 100.1829408  69.9779408  13.5460000 101.5199408  70.6549408  24.6330000
 101.7749408  71.4879408  24.2350000 100.7539408  70.3749408  24.1320000
 118.8309408  67.2719408   2.2880000 118.8699408  66.9779408   3.1980000
 119.5399408  66.7969408   1.8530000 102.8319408  66.0959408  25.8560000
 102.2219408  66.7999408  26.0740000 102.2899408  65.4319408  25.4300000
 112.0739408  69.3869408  29.4840000 112.9599408  69.0269408  29.4310000
 111.4999408  68.6319408  29.3590000 107.8369408  65.8009408  18.3520000
 108.7399408  65.6199408  18.0890000 107.7859408  66.7559408  18.3950000
 105.8959408  79.4069408  24.8660000 105.5879408  78.8379408  25.5710000
 106.8499408  79.3899408  24.9430000 102.3099408  77.8379408  18.4750000
 101.5999408  77.7869408  17.8350000 102.9599408  78.4099408  18.0670000
 111.5769408  70.0929408  13.5580000 110.8019408  70.5149408  13.9290000
 111.6999408  70.5189408  12.7100000  95.6739408  83.6199408   0.0820000
  96.0949408  83.8689408   0.9050000  96.3839408  83.2649408  -0.4520000
  93.0279408  78.2679408   1.4330000  93.1569408  79.2159408   1.4620000
  93.8729408  77.9189408   1.1520000  95.6639408  68.1749408  18.2520000
  96.2629408  67.8789408  18.9380000  95.1889408  67.3859408  17.9920000
  95.9109408  66.2639408  23.1760000  95.8639408  65.3079408  23.1610000
  95.2579408  66.5469408  22.5370000  93.5549408  72.7819408   3.2750000
  92.7219408  72.4139408   3.5720000  93.4619408  73.7249408   3.4110000
 102.0799408  62.2879408  25.6550000 101.8949408  62.3419408  26.5920000
 101.6749408  63.0719408  25.2840000 110.1159408  63.8369408  15.0270000
 110.6079408  64.5009408  14.5440000 109.2639408  63.8059408  14.5920000
  99.1499408  89.6889408  22.5040000  99.9349408  90.2339408  22.5540000
  99.1679408  89.3219408  21.6200000 100.2899408  76.9219408  26.2360000
 100.6129408  76.3839408  25.5120000 100.5349408  77.8159408  25.9980000
  99.0229408  70.0999408  23.4030000  98.3649408  70.6929408  23.7660000
  98.5369408  69.3039408  23.1870000  92.6359408  69.1879408  12.6550000
  92.1249408  69.8089408  13.1730000  91.9839408  68.6069408  12.2650000
 100.1199408  61.7629408   3.4120000  99.5699408  61.8339408   2.6310000
 100.9739408  62.0939408   3.1340000 105.5569408  85.5499408  26.2860000
 104.8219408  84.9969408  26.0220000 106.0899408  85.6339408  25.4950000
 104.3109408  70.8199408  25.0000000 103.4729408  70.6859408  24.5580000
 104.6099408  69.9379408  25.2200000 114.7679408  66.0699408  17.1460000
 113.8289408  66.0299408  16.9640000 115.1819408  65.7409408  16.3480000
  95.1569408  71.4689408  15.1180000  94.3929408  71.0489408  15.5120000
  95.9069408  71.0229408  15.5130000 106.3049408  77.8459408  18.6500000
 106.4699408  78.5339408  18.0040000 106.6669408  77.0539408  18.2540000
 101.4229408  61.4139408  22.3640000 101.7979408  61.2949408  23.2370000
 102.1729408  61.6199408  21.8060000  94.3739408  62.0349408  22.5920000
  95.0449408  62.5869408  22.9950000  93.7539408  62.6539408  22.2080000
  97.8019408  76.5439408   7.0640000  97.6149408  75.6139408   7.1890000
  97.8329408  76.9049408   7.9500000  91.7749408  60.6259408  28.9360000
  92.5749408  61.0719408  29.2140000  91.1079408  61.3129408  28.9280000
 102.7309408  72.2139408  18.9580000 102.2289408  71.4239408  18.7610000
 102.6519408  72.7509408  18.1690000 100.8119408  64.5099408  24.7060000
  99.9129408  64.5729408  25.0290000 100.7219408  64.4639408  23.7540000
  97.4109408  68.2469408  22.5390000  97.0039408  67.3889408  22.6570000
  96.8979408  68.6629408  21.8460000  95.9589408  62.4859408  29.6520000
  95.4029408  62.4139408  30.4270000  95.4749408  62.0279408  28.9650000
 118.9339408  59.9049408  27.3680000 119.3039408  60.6489408  27.8430000
 119.4589408  59.8439408  26.5700000 108.8269408  63.5309408  22.3500000
 108.8589408  62.6169408  22.6340000 109.3369408  63.5479408  21.5400000
 103.0339408  74.4019408   3.2410000 103.4299408  74.6769408   2.4150000
 102.6019408  73.5729408   3.0360000 104.6579408  61.6439408  24.3280000
 105.2989408  61.5509408  25.0330000 103.8909408  62.0299408  24.7510000
  99.2199408  70.8319408  20.8010000  98.2959408  70.9889408  20.6070000
  99.2279408  70.5439408  21.7140000  98.1889408  77.1529408  23.5900000
  99.0689408  77.0679408  23.9560000  97.9749408  78.0809408  23.6910000
  97.2109408  68.0059408   5.3860000  96.6419408  68.7579408   5.5510000
  97.9689408  68.1489408   5.9520000 120.1159408  68.1649408  11.4220000
 120.1929408  67.2509408  11.1470000 119.2939408  68.4639408  11.0340000
 111.0649408  69.6399408   2.0140000 111.5329408  69.0169408   2.5690000
 111.5449408  69.6309408   1.1850000  94.8949408  78.8529408   6.4910000
  95.2919408  79.6979408   6.7040000  95.4089408  78.5259408   5.7530000
  90.8779408  89.1329408   1.2170000  91.1779408  89.6449408   0.4660000
  91.0379408  88.2229408   0.9670000  96.9089408  64.5699408  15.4710000
  96.4269408  65.1219408  14.8560000  96.2819408  64.3849408  16.1700000
 105.2509408  68.2789408  25.3330000 104.5369408  67.6459408  25.4040000
 105.7219408  68.2039408  26.1630000 106.1519408  76.8349408   6.9130000
 105.4469408  76.5409408   6.3350000 105.7099408  77.0769408   7.7270000
 105.4429408  60.1609408  13.2290000 106.1079408  59.5109408  13.4580000
 105.5879408  60.8799408  13.8430000 104.3959408  78.1949408  10.7400000
 104.3709408  78.1429408  11.6950000 104.2869408  77.2889408  10.4480000
  95.1149408  64.0059408  26.8730000  94.1869408  64.1409408  26.6820000
  95.3489408  64.7299408  27.4530000 111.5419408  62.2789408  24.3060000
 111.1949408  62.1159408  23.4290000 111.4429408  61.4439408  24.7630000
 104.6329408  83.1429408  10.1660000 104.8209408  83.6079408   9.3500000
 104.7559408  82.2189408   9.9490000 105.3159408  72.0549408  16.3340000
 104.9349408  72.8129408  16.7780000 106.1729408  71.9419408  16.7450000
 112.2929408  77.8109408  23.8080000 112.1829408  77.0259408  24.3450000
 112.7159408  78.4419408  24.3890000  99.7159408  77.2639408   0.6440000
 100.4809408  76.8889408   0.2080000 100.0779408  77.7609408   1.3780000
  99.6429408  87.8269408  24.9720000  99.4569408  87.5769408  24.0670000
 100.3899408  88.4219408  24.9080000  90.1669408  68.8079408  20.3710000
  89.8829408  68.0049408  20.8070000  89.9809408  69.5029408  21.0020000
 101.3649408  69.9299408  18.7550000 100.7509408  69.2719408  18.4300000
 101.2129408  69.9549408  19.7000000 104.3869408  80.9349408   1.0510000
 103.5169408  81.2199408   0.7720000 104.8489408  80.7409408   0.2360000
 100.7769408  69.9669408  15.3550000 101.7099408  70.1599408  15.2610000
 100.7469408  69.1889408  15.9110000 109.8279408  75.7489408  13.0870000
 110.5869408  75.7009408  13.6680000 109.2939408  74.9909408  13.3260000
 118.4329408  61.3169408  17.7720000 118.3759408  60.3929408  18.0160000
 118.3789408  61.7879408  18.6040000 106.9629408  76.6139408  22.6300000
 106.8069408  77.5369408  22.8310000 107.8629408  76.5879408  22.3060000
 116.9299408  71.9079408   1.8610000 116.9209408  72.4829408   2.6270000
 117.6339408  71.2839408   2.0360000 105.8339408  63.3109408   1.4930000
 106.3929408  62.5349408   1.4550000 105.4889408  63.4019408   0.6050000
  90.8749408  63.4179408  23.9600000  90.5559408  62.5409408  23.7490000
  91.6379408  63.5389408  23.3940000 103.8929408  79.7199408  17.2500000
 103.8199408  80.5249408  16.7370000 104.7049408  79.3139408  16.9450000
 100.5189408  67.1779408  15.9270000 100.5439408  66.3239408  16.3590000
 100.1409408  66.9999408  15.0660000 105.5579408  64.1889408  26.1150000
 104.8629408  64.8469408  26.1260000 105.7909408  64.1009408  25.1910000
  97.9469408  67.0969408  19.7360000  97.9239408  66.1409408  19.7090000
  98.7869408  67.3059408  20.1460000 106.8989408  89.9439408   5.6780000
 106.7499408  89.2089408   6.2740000 106.6159408  89.6199408   4.8230000
  99.8299408  87.2289408   5.4010000  98.9329408  87.4469408   5.1470000
 100.3679408  87.5429408   4.6740000  91.1219408  66.0539408   9.6410000
  90.6489408  66.3209408   8.8530000  91.9209408  66.5809408   9.6320000
 101.1519408  82.9069408  20.7830000 101.1849408  81.9589408  20.9060000
 100.5209408  83.0349408  20.0740000 101.0869408  85.7069408   7.3250000
 100.8939408  86.1889408   8.1280000 100.7599408  86.2699408   6.6230000
  92.6749408  78.7829408  10.9760000  93.1839408  79.3299408  11.5740000
  93.0549408  78.9529408  10.1140000 103.9669408  75.5319408   5.7910000
 104.1179408  74.5939408   5.6770000 103.3829408  75.7699408   5.0710000
  92.1679408  64.6769408  12.0900000  91.6919408  65.0179408  11.3330000
  91.8439408  65.1909408  12.8290000  99.7219408  88.0699408   8.6160000
  99.4219408  88.0619408   7.7080000  99.1469408  88.6979408   9.0530000
 101.7279408  80.3879408  21.2710000 101.6209408  79.5149408  20.8940000
 102.3419408  80.2629408  21.9960000 118.0529408  85.8899408  12.2050000
 118.2489408  86.7309408  12.6180000 117.0989408  85.8779408  12.1250000
 103.8599408  66.7389408   2.4700000 103.0679408  67.2019408   2.1940000
 103.5509408  66.0939408   3.1060000  94.9999408  89.5199408  18.2440000
  95.1339408  89.6689408  19.1800000  94.6149408  90.3359408  17.9240000
 100.5059408  79.8669408   6.1100000  99.8559408  79.5139408   5.5030000
  99.9949408  80.3779408   6.7380000 103.0909408  65.1259408   4.6640000
 103.6829408  65.1169408   5.4160000 102.3979408  64.5079408   4.8970000
  93.3269408  84.6049408  19.3680000  94.2059408  84.2289408  19.3230000
  93.4169408  85.4729408  18.9750000  90.0379408  81.4779408   4.6990000
  90.9309408  81.1549408   4.5830000  89.4899408  80.8369408   4.2450000
 105.7609408  85.8819408   4.7460000 105.6409408  85.0999408   4.2060000
 104.9199408  85.9989408   5.1890000 104.2179408  80.3289408  13.1910000
 104.4609408  81.2159408  12.9250000 105.0449408  79.9189408  13.4450000
 107.6079408  81.4719408  21.4500000 107.1129408  82.1989408  21.8280000
 107.2049408  80.6879408  21.8230000 102.8429408  84.9729408  21.9030000
 102.4879408  84.2539408  21.3800000 103.3269408  85.5089408  21.2750000
  94.6779408  82.4899408  16.5850000  95.2769408  83.2359408  16.6160000
  95.2109408  81.7439408  16.8610000  95.7979408  81.3969408   6.7650000
  96.4539408  81.7799408   7.3470000  94.9819408  81.4349408   7.2640000
 107.4849408  87.6719408   7.7400000 106.6389408  87.2889408   7.9700000
 107.8719408  87.0489408   7.1250000  92.3099408  78.7869408   5.5240000
  91.6629408  78.6259408   6.2120000  93.1549408  78.6519408   5.9530000
 104.3059408  88.7819408   7.3720000 104.7559408  88.1469408   7.9280000
 103.9669408  88.2639408   6.6420000  96.4959408  78.9039408   2.3800000
  95.9039408  79.5189408   1.9470000  95.9969408  78.0889408   2.4350000
 106.4369408  79.0669408  21.2430000 106.5039408  78.3559408  20.6060000
 105.6939408  79.5899408  20.9420000  97.2649408  83.0889408   3.3920000
  97.5729408  83.8519408   2.9040000  97.6459408  83.1919408   4.2640000
 100.3759408  83.4779408  17.1180000  99.6279408  83.2069408  17.6500000
 100.5139408  82.7509408  16.5100000 105.4449408  85.1009408  14.0140000
 106.2459408  85.2109408  13.5020000 105.0809408  84.2679408  13.7140000
  99.1669408  65.4379408   5.7480000  98.8509408  65.6709408   4.8750000
  99.4189408  64.5179408   5.6750000  94.2729408  80.1469408  12.5690000
  93.8439408  80.9559408  12.8460000  95.0339408  80.0699408  13.1450000
  93.2469408  75.4839408   3.2100000  93.6359408  76.1419408   2.6340000
  93.7999408  75.4919408   3.9910000  94.1789408  77.7809408   8.9290000
  94.2309408  78.1619408   8.0530000  93.5919408  77.0319408   8.8310000
 101.1639408  89.3629408  14.0990000 101.9599408  89.0219408  14.5070000
 100.8289408  90.0059408  14.7250000 101.2709408  89.4239408   0.7540000
 101.1439408  89.1009408  -0.1380000 100.7259408  90.2099408   0.8040000
 100.1639408  74.3359408  17.9330000  99.7059408  73.4989408  17.8530000
 100.9369408  74.2409408  17.3770000  96.7049408  84.8669408   7.0240000
  97.3139408  84.3839408   6.4660000  96.0519408  85.2189408   6.4190000
  90.7809408  77.7779408   3.0700000  91.3749408  77.8329408   3.8190000
  91.3059408  78.0689408   2.3250000  96.9129408  86.0559408  13.0170000
  96.7609408  86.9919408  13.1450000  97.8609408  85.9539408  13.1010000
  99.9689408  85.5049408  11.5150000 100.0609408  86.2039408  12.1630000
  99.5309408  85.9229408  10.7730000 102.8559408  62.0519408   9.6080000
 103.6339408  61.5559408   9.8640000 102.6389408  62.5739408  10.3800000
 100.9059408  82.2719408   1.9450000 100.8709408  81.3879408   1.5790000
 100.4339408  82.8129408   1.3120000  90.6149408  74.7429408   2.4330000
  89.9859408  75.4539408   2.5520000  91.4659408  75.1429408   2.6100000
 105.8529408  83.8829408   7.9390000 105.9139408  83.7729408   6.9900000
 106.7569408  84.0099408   8.2250000  97.6779408  75.6369408  18.2270000
  97.3809408  75.6059408  19.1360000  98.4549408  75.0779408  18.2080000
 101.6299408  83.2589408  11.2250000 101.9139408  83.2529408  10.3110000
 100.9499408  83.9319408  11.2610000  93.3079408  82.3489408  14.1740000
  93.6449408  83.1049408  13.6930000  93.8179408  82.3319408  14.9840000
 110.0859408  63.0319408   1.4180000 110.4329408  62.3479408   0.8450000
 109.2249408  62.7079408   1.6830000 118.1769408  62.4219408  20.1510000
 117.3749408  62.2089408  20.6290000 118.4289408  63.2859408  20.4760000
 109.2209408  88.9019408   9.3070000 108.6819408  89.2899408   9.9960000
 108.5979408  88.6619408   8.6210000  90.9919408  59.9949408  25.7370000
  91.7769408  60.0659408  25.1940000  91.2419408  60.3889408  26.5730000
  90.7819408  76.6869408  15.9170000  90.1779408  76.2529408  16.5200000
  90.3069408  77.4619408  15.6180000  96.7389408  84.1779408   9.9850000
  96.8389408  85.0859408  10.2700000  96.8689408  84.2079408   9.0370000
 100.4329408  61.4439408  15.7220000 100.5989408  61.4719408  16.6650000
 100.7079408  62.3039408  15.4050000 101.3089408  79.2199408  25.3400000
 102.0399408  79.3309408  24.7320000 101.4799408  79.8519408  26.0380000
  93.3309408  79.3729408  18.2010000  92.4419408  79.5659408  18.5000000
  93.8949408  79.6769408  18.9110000 116.3379408  68.5209408  14.7070000
 115.9319408  69.3879408  14.7270000 115.5999408  67.9109408  14.7000000
  93.1059408  81.9459408   8.1800000  93.4189408  82.7029408   8.6760000
  92.1519408  82.0229408   8.2010000 105.4369408  83.2539408  20.0090000
 106.0059408  83.1119408  19.2530000 105.0009408  82.4129408  20.1430000
  97.0619408  81.4499408   9.2770000  97.2629408  82.2119408   9.8210000
  96.5489408  80.8769408   9.8470000 102.4839408  86.0199408  29.2340000
 102.1589408  85.9759408  30.1330000 101.7009408  86.1619408  28.7020000
 102.0659408  88.8869408   9.7040000 101.2279408  88.5389408   9.3980000
 102.5209408  89.1529408   8.9050000 101.2699408  86.0949408  16.5260000
 101.8939408  86.0249408  15.8040000 101.2699408  85.2259408  16.9290000
 100.8659408  78.4719408   2.7640000 100.6719408  79.4039408   2.8690000
 101.5619408  78.2989408   3.3990000 103.6439408  60.4429408   1.8470000
 102.8629408  60.2199408   1.3410000 103.6489408  61.3999408   1.8730000
  93.1739408  60.5829408   4.5740000  94.1289408  60.6499408   4.5680000
  92.8779408  61.4079408   4.9580000  99.4209408  81.4549408   7.9740000
  98.8169408  81.4819408   8.7160000 100.2109408  81.8929408   8.2920000
 118.8549408  83.9129408  10.4620000 118.1329408  83.2899408  10.3720000
 118.5459408  84.5469408  11.1090000  99.8059408  75.8759408  21.7940000
  98.8959408  76.1509408  21.9020000  99.7489408  74.9669408  21.5000000
  97.9939408  81.3219408  14.6600000  98.8919408  81.3319408  14.9910000
  97.9779408  82.0019408  13.9870000 115.4639408  85.1709408   8.5830000
 114.5769408  85.4189408   8.3240000 115.9009408  84.9499408   7.7600000
  98.2409408  79.7249408  25.2630000  98.0479408  79.1849408  26.0300000
  99.1959408  79.7239408  25.2030000 102.9509408  61.3049408  12.5350000
 103.5739408  60.6049408  12.7320000 102.1069408  60.9639408  12.8300000
 119.8429408  86.8959408   8.9490000 119.2369408  86.1979408   8.6960000
 120.4319408  86.4839408   9.5810000 103.2739408  86.0209408   5.5640000
 103.0779408  85.8549408   6.4860000 102.5129408  85.6839408   5.0920000
 103.9679408  83.1959408  12.7510000 103.0609408  83.1179408  12.4530000
 104.4749408  83.3119408  11.9480000  97.9659408  83.2009408  24.6000000
  98.6309408  82.7009408  24.1270000  97.9549408  84.0549408  24.1660000
  97.1999408  62.1849408  19.7970000  97.7519408  61.4189408  19.6400000
  96.4489408  61.8439408  20.2840000 106.6659408  72.2829408   1.1970000
 106.1439408  73.0379408   0.9240000 106.2319408  71.9649408   1.9890000
 101.4439408  75.8639408  23.9440000 102.0879408  76.3889408  23.4680000
 100.7859408  75.6379408  23.2870000 104.5009408  72.8519408   5.8720000
 104.3729408  72.6739408   6.8040000 103.6179408  72.8409408   5.5020000
 100.8959408  79.7499408   9.9370000 100.1039408  79.8069408  10.4710000
 101.6099408  79.9329408  10.5480000 109.0259408  74.6979408   5.6060000
 109.1789408  75.5409408   6.0320000 108.8219408  74.0999408   6.3250000
  96.7689408  88.4729408  14.2330000  97.3599408  89.2059408  14.4070000
  95.9639408  88.6979408  14.6990000  99.7699408  82.6009408  26.6800000
  99.2829408  82.6389408  25.8560000  99.7329408  83.4939408  27.0220000
 117.3529408  60.3099408  12.8330000 117.5099408  59.6729408  13.5300000
 117.9369408  61.0399408  13.0390000 102.1129408  78.3489408   7.7370000
 101.7449408  78.5769408   8.5910000 101.5649408  78.8179408   7.1070000
 114.6629408  79.5749408  12.4850000 114.9049408  78.8659408  13.0800000
 114.1909408  79.1409408  11.7740000  91.4539408  89.7109408  15.8930000
  91.4329408  90.6619408  16.0040000  92.2849408  89.5399408  15.4500000
  96.8329408  80.5419408  17.8900000  97.4509408  79.8449408  17.6710000
  96.2749408  80.1639408  18.5700000 115.2199408  74.8659408   1.3530000
 115.3179408  74.0859408   0.8060000 114.4369408  75.3009408   1.0120000
 108.8679408  87.6099408   3.3490000 109.7269408  87.3279408   3.6620000
 108.2529408  87.2769408   4.0020000  98.3579408  64.1779408   1.8600000
  98.4489408  64.8209408   2.5630000  97.5369408  63.7239408   2.0540000
 101.2019408  88.7629408   3.4690000 101.2119408  89.5939408   3.9450000
 101.6049408  88.9659408   2.6240000  96.1329408  83.5059408  20.1000000
  96.3269408  83.2889408  19.1880000  96.9599408  83.8419408  20.4480000
 100.2109408  88.4339408  11.9620000 101.0079408  88.2959408  11.4500000
 100.5229408  88.6039408  12.8510000 107.3879408  82.3639408  27.4260000
 107.6389408  82.8729408  28.1970000 108.1209408  82.4709408  26.8190000
  91.6809408  88.4499408   7.5820000  92.3499408  87.9409408   7.1260000
  90.8959408  87.9039408   7.5440000 115.9239408  82.7609408  13.2040000
 115.7279408  82.7439408  12.2670000 116.0819408  81.8459408  13.4340000
 109.3099408  86.6769408  14.0320000 109.6109408  86.8749408  14.9190000
 109.3619408  85.7229408  13.9680000  93.3539408  84.7089408   9.0660000
  93.7559408  85.5449408   9.3010000  92.5179408  84.9489408   8.6650000
  91.4129408  86.7549408   0.3960000  92.1889408  87.0679408  -0.0690000
  91.2349408  85.8959408   0.0140000 112.3659408  74.6299408   8.6880000
 111.7399408  74.6659408   9.4110000 113.1379408  75.0919408   9.0160000
  91.5119408  79.0599408  13.6060000  90.8219408  79.4449408  13.0660000
  92.0049408  78.5029408  13.0030000  93.9449408  86.8669408  18.1460000
  93.7629408  86.8199408  17.2080000  94.4529408  87.6719408  18.2510000
 103.2799408  82.0519408  15.6120000 102.3279408  81.9589408  15.6370000
 103.5199408  81.8259408  14.7140000 102.9559408  81.3659408   6.3640000
 103.4859408  81.8059408   5.6990000 102.4029408  80.7609408   5.8690000
  93.4409408  66.1809408   1.9050000  94.0029408  66.8479408   1.5100000
  93.9759408  65.7989408   2.6010000 107.0119408  83.5979408   0.0990000
 107.4669408  84.3679408   0.4400000 106.1409408  83.9179408  -0.1370000
 108.2589408  72.5979408   7.4360000 107.7069408  71.9699408   6.9700000
 107.6589408  73.0499408   8.0290000  90.1369408  63.5589408   5.8370000
  89.9919408  62.6449408   5.5950000  90.0729408  63.5669408   6.7920000
 109.9039408  60.2909408  26.3150000 109.3069408  60.0529408  27.0240000
 110.2959408  61.1169408  26.5980000  98.6959408  64.9359408  26.2190000
  98.5659408  64.8349408  27.1620000  97.9669408  65.4869408  25.9330000
  95.0549408  60.9999408  27.6170000  95.2369408  61.8089408  27.1400000
  94.9239408  60.3429408  26.9330000 102.6159408  82.0489408  24.5270000
 102.7129408  81.7699408  25.4380000 103.1399408  81.4229408  24.0270000
  94.7479408  86.4299408   2.0810000  94.8309408  85.7089408   2.7050000
  93.9279408  86.8609408   2.3190000  99.2759408  86.4629408  14.7030000
  99.7309408  86.2569408  15.5190000  99.1089408  87.4049408  14.7520000
 106.2559408  83.4489408  22.4580000 105.9049408  83.5529408  21.5740000
 105.4959408  83.5559408  23.0320000  96.9949408  75.9949408  20.7340000
  96.4209408  75.7369408  21.4560000  96.9939408  76.9519408  20.7580000
 106.4109408  87.9309408  16.0400000 106.7929408  88.4529408  16.7440000
 106.9819408  88.0879408  15.2870000 104.1419408  84.1589408  24.0840000
 103.6309408  83.3779408  24.2940000 103.5819408  84.6599408  23.4910000
 103.5379408  76.9969408  22.3460000 104.1009408  76.3869408  22.8230000
 103.4289408  76.5979408  21.4830000 103.4829408  79.4799408  23.5240000
 103.6019408  78.6709408  23.0260000 104.1959408  79.4769408  24.1620000
  95.5179408  80.8639408   0.6340000  94.6129408  80.9029408   0.3240000
  95.8689408  81.7369408   0.4600000 104.6979408  85.7839408  19.6430000
 104.8279408  85.7939408  18.6940000 104.6369408  84.8559408  19.8670000
 101.6579408  89.4879408  25.1230000 101.5199408  90.2759408  25.6490000
 102.5939408  89.3049408  25.2060000  95.6269408  85.5319408  22.0670000
  96.1349408  85.9269408  21.3580000  95.2669408  84.7309408  21.6870000
  98.4599408  62.5539408  24.9290000  98.0919408  61.8119408  25.4080000
  98.4689408  63.2689408  25.5650000 114.5209408  77.0009408  22.3890000
 115.1209408  76.3069408  22.6620000 113.6929408  76.7869408  22.8180000
 100.6369408  81.0749408  15.7480000 101.0509408  80.3259408  16.1760000
 100.8889408  80.9959408  14.8280000  97.8009408  77.6069408  26.9660000
  97.9509408  78.0929408  27.7770000  98.6709408  77.3129408  26.6970000
 106.3829408  85.0279408  16.5230000 105.9809408  84.9789408  15.6560000
 106.6939408  85.9299408  16.5930000  98.7329408  85.2859408   2.7840000
  99.4529408  85.3559408   2.1580000  98.2929408  86.1349408   2.7390000
 116.7709408  63.6649408  22.7270000 116.7729408  62.8369408  23.2070000
 117.3549408  64.2339408  23.2270000  95.4859408  77.0279408  25.4590000
  95.3769408  76.1209408  25.7470000  96.3439408  77.2849408  25.7970000
  99.9189408  63.5539408  21.8240000  99.1149408  63.4609408  22.3350000
 100.5089408  62.8899408  22.1800000 101.3379408  88.9519408  27.8980000
 100.3879408  88.9459408  27.7800000 101.6909408  88.7969408  27.0220000
  98.4839408  72.6569408  12.7750000  98.7579408  73.2109408  12.0450000
  99.2489408  72.1129408  12.9640000  94.8689408  82.0059408   4.4930000
  95.4839408  82.3369408   3.8380000  95.3879408  81.9349408   5.2950000
  91.1839408  83.8679408   2.2820000  91.7039408  83.3719408   1.6500000
  91.6219408  83.7219408   3.1200000  97.4129408  86.2019408  20.0570000
  97.4249408  86.6489408  19.2110000  98.2419408  86.4469408  20.4690000
 100.8449408  62.1909408  28.1290000  99.9649408  61.9919408  27.8090000
 100.7209408  62.4099408  29.0520000 102.1609408  81.0939408  27.1720000
 101.3539408  81.5889408  27.0280000 102.4389408  81.3399408  28.0540000
 116.5009408  83.4099408   3.8900000 117.2679408  83.2959408   3.3290000
 116.1529408  84.2679408   3.6490000 102.1069408  88.3369408  22.1520000
 102.8629408  88.3479408  22.7390000 101.9139408  89.2609408  21.9920000
 105.8789408  62.1039408  21.6990000 105.5149408  61.9559408  22.5720000
 106.7829408  61.7959408  21.7610000  98.8949408  81.6709408  19.8570000
  98.2309408  81.5909408  19.1720000  98.9859408  80.7849408  20.2080000
 104.5349408  63.3569408  28.7370000 104.1719408  62.4879408  28.5610000
 105.0539408  63.5609408  27.9590000 107.1019408  75.7249408  25.9070000
 107.7749408  76.4049408  25.8650000 106.2939408  76.1989408  26.1020000
 103.0649408  61.5539408  20.0000000 103.9649408  61.6039408  20.3230000
 102.9399408  60.6309408  19.7800000  98.2529408  61.2669408  28.1430000
  97.5959408  61.4079408  28.8250000  98.1889408  60.3329408  27.9390000
 100.1359408  82.0139408  23.1660000 100.2959408  82.4989408  22.3560000
 100.9959408  81.9489408  23.5810000 108.4869408  68.0279408   1.6070000
 109.1999408  68.3819408   2.1380000 108.0509408  68.7999408   1.2450000
 105.1319408  77.2609408  26.3960000 105.2409408  77.6919408  27.2440000
 104.5449408  76.5269408  26.5740000  97.2789408  86.4109408  26.2950000
  96.3539408  86.2849408  26.0820000  97.7199408  86.4259408  25.4460000
 104.4529408  80.9099408   3.7780000 104.3679408  80.7669408   2.8350000
 105.0229408  80.2019408   4.0770000  97.1399408  87.5469408  17.6840000
  96.8289408  87.2759408  16.8200000  96.5409408  88.2459408  17.9460000
 115.0939408  63.0129408  25.4040000 114.7599408  62.6939408  24.5660000
 115.6369408  62.2969408  25.7340000 105.7979408  88.7229408   3.2530000
 105.6619408  87.7969408   3.0530000 105.1299408  89.1799408   2.7420000
  98.0329408  89.1679408  10.5370000  98.6119408  88.8459408  11.2270000
  97.5109408  89.8489408  10.9610000 102.8329408  76.8609408  13.8650000
 102.4649408  75.9809408  13.9370000 102.1939408  77.3459408  13.3420000
 103.1219408  75.2349408  26.3590000 102.9999408  74.2859408  26.3360000
 103.2029408  75.4879408  25.4390000  95.5019408  60.1759408  20.8970000
  95.1519408  60.8029408  21.5300000  95.3639408  59.3209408  21.3060000
 104.6709408  67.7959408   5.3550000 105.3629408  67.6749408   4.7050000
 104.3999408  66.9069408   5.5840000 102.2429408  66.3459408   7.8770000
 103.0639408  65.9189408   7.6340000 101.5769408  65.9019408   7.3520000
 114.9609408  75.1169408   6.4150000 114.0719408  75.3439408   6.1410000
 115.4919408  75.8699408   6.1570000 109.3769408  67.5459408  12.7920000
 109.5639408  67.9789408  11.9590000 108.9799408  68.2279408  13.3340000
 119.9389408  72.9329408  20.1570000 119.2409408  73.5489408  19.9330000
 119.5489408  72.0699408  20.0180000 113.4369408  68.0999408  14.6000000
 113.0629408  68.4679408  13.7990000 113.0709408  67.2169408  14.6520000
 117.4789408  63.9939408  10.6530000 117.3369408  64.2939408   9.7560000
 117.7139408  63.0699408  10.5640000 113.8419408  67.9109408  11.1330000
 113.2649408  68.4849408  10.6300000 114.5029408  67.6239408  10.5030000
 114.1399408  61.3499408  10.9420000 113.2239408  61.4689408  11.1920000
 114.1099408  60.7419408  10.2040000  90.0609408  66.7279408  17.5830000
  90.7789408  67.3319408  17.7720000  89.7179408  67.0209408  16.7390000
 109.3879408  72.0239408   1.7080000 108.4449408  72.1189408   1.5730000
 109.5609408  71.0969408   1.5410000 108.6229408  64.8899408  12.5080000
 109.1929408  64.4829408  11.8550000 108.9969408  65.7609408  12.6440000
 118.2209408  83.3229408  14.8680000 117.5639408  83.4529408  14.1850000
 119.0359408  83.1649408  14.3900000 117.7609408  62.7849408   3.9490000
 118.2159408  62.0179408   3.6010000 117.0409408  62.9349408   3.3370000
 105.8699408  67.0169408   0.6600000 105.2029408  66.8519408   1.3270000
 106.4569408  67.6569408   1.0610000 109.5339408  77.2399408  26.6460000
 110.2919408  76.8729408  26.1910000 109.5379408  76.8119408  27.5020000
 115.9399408  65.4359408  14.7680000 116.1589408  65.8389408  13.9280000
 115.7629408  64.5199408  14.5560000 115.4509408  66.9699408   5.4990000
 114.8859408  66.2069408   5.3780000 115.7639408  67.1789408   4.6180000
  90.4629408  82.8909408  13.2580000  90.2129408  81.9829408  13.0880000
  91.3599408  82.8359408  13.5870000 104.7979408  71.2589408  20.4950000
 104.1209408  71.7319408  20.0110000 105.3779408  71.9449408  20.8280000
 108.4659408  83.8039408   9.1880000 108.8379408  84.6159408   8.8460000
 108.9149408  83.1109408   8.7040000 106.7079408  67.0059408   3.8860000
 107.1969408  67.5149408   3.2390000 106.7849408  66.0999408   3.5860000
  95.6159408  63.9159408  17.9620000  96.1299408  63.4149408  18.5940000
  95.1099408  63.2559408  17.4870000 100.5079408  67.1349408  20.9140000
 101.3479408  66.7929408  20.6060000 100.6289408  67.2549408  21.8560000
  95.4309408  68.9249408  13.3460000  94.5449408  68.8439408  13.6980000
  95.4069408  69.7229408  12.8170000 119.5329408  60.6999408   3.3760000
 120.1959408  60.7629408   2.6890000 119.1429408  59.8339408   3.2540000
 109.1209408  71.3209408  13.8360000 108.7309408  71.3989408  12.9650000
 108.7629408  72.0599408  14.3270000 113.4509408  76.6139408  17.9200000
 113.0099408  77.2459408  17.3520000 112.8429408  76.4799408  18.6470000
  91.2429408  85.3819408  11.0890000  91.8839408  84.7989408  10.6820000
  90.4409408  84.8619408  11.1370000  90.5589408  63.4369408   2.1060000
  90.9039408  63.9419408   1.3700000  89.6199408  63.3699408   1.9320000
 115.4529408  83.0009408   6.3470000 116.1639408  82.5919408   6.8410000
 115.8259408  83.1649408   5.4810000 109.8289408  72.1619408   4.8400000
 110.2879408  72.3219408   5.6640000 109.5549408  73.0299408   4.5450000
 108.0169408  67.0069408  27.2190000 107.3259408  66.5609408  27.7080000
 108.0999408  66.5049408  26.4080000 115.5609408  71.1319408  15.4750000
 115.1189408  70.5969408  16.1340000 114.8589408  71.6419408  15.0700000
  91.6959408  74.5629408   5.6540000  91.0739408  74.5129408   4.9270000
  91.7619408  73.6639408   5.9750000 116.7429408  63.6139408  17.8620000
 116.4659408  64.0829408  17.0750000 116.0469408  62.9769408  18.0200000
 111.6259408  79.4869408   1.2030000 112.4039408  79.0829408   1.5860000
 111.3859408  80.1789408   1.8190000 109.8959408  67.7829408  29.2340000
 109.4559408  67.5179408  28.4260000 109.2739408  67.5689408  29.9280000
 119.2179408  83.7659408   5.8380000 119.3659408  84.3189408   5.0710000
 119.4309408  82.8809408   5.5410000 111.2669408  60.7559408   8.5830000
 111.3999408  61.0999408   9.4660000 110.5919408  60.0849408   8.6870000
 117.0209408  60.6149408  23.3560000 116.1119408  60.3729408  23.1770000
 117.4589408  59.7839408  23.5400000 117.0549408  80.3509408  13.5330000
 116.2059408  80.0659408  13.1960000 117.4329408  79.5649408  13.9270000
 113.3629408  65.0449408  11.8150000 113.7649408  65.8809408  11.5770000
 114.1039408  64.4649408  11.9930000 114.9759408  61.0289408  20.1130000
 114.6729408  61.3969408  19.2830000 114.4759408  61.4979408  20.7810000
 116.3219408  67.4929408  23.9420000 116.3019408  66.7529408  24.5480000
 117.1049408  67.9849408  24.1900000  90.1739408  71.8329408  11.6060000
  90.4409408  71.6049408  12.4960000  90.8999408  72.3529408  11.2630000
 115.7369408  79.1459408   8.1800000 114.8499408  79.1279408   8.5390000
 116.1869408  78.4239408   8.6170000 106.6539408  69.5689408   7.1000000
 106.2859408  69.1019408   6.3490000 107.5579408  69.2609408   7.1550000
 108.3429408  85.7469408   6.0430000 108.8659408  84.9999408   5.7510000
 107.5969408  85.7659408   5.4440000  94.7929408  85.8129408   5.2480000
  94.3529408  86.6369408   5.4600000  94.0799408  85.1949408   5.0880000
 113.2419408  83.1659408  10.4920000 112.9709408  83.7249408   9.7630000
 112.5509408  82.5069408  10.5570000  90.0309408  66.3349408   7.2890000
  89.4529408  65.8939408   6.6650000  90.7089408  66.7369408   6.7450000
  95.4109408  61.6389408  14.1010000  96.3529408  61.5459408  13.9540000
  95.1199408  62.2449408  13.4200000 110.9789408  71.3509408  28.1040000
 111.4849408  70.7389408  28.6380000 111.4719408  71.4199408  27.2860000
 102.0409408  63.7889408   0.3090000 101.4489408  64.5119408   0.1020000
 102.7159408  63.8299408  -0.3690000 114.4599408  62.0869408  17.5660000
 114.6979408  62.1839408  16.6440000 113.9199408  61.2969408  17.5930000
  98.5499408  64.3989408  19.4280000  99.1569408  64.0959408  20.1040000
  97.8149408  63.7869408  19.4750000 111.2339408  61.7299408  11.0500000
 111.0569408  61.7479408  11.9900000 111.0979408  62.6329408  10.7630000
 112.1169408  66.2239408  16.4610000 111.5759408  66.8179408  16.9810000
 111.6809408  66.1839408  15.6100000 107.0459408  69.7769408  30.0950000
 106.9329408  70.7139408  30.2500000 107.3599408  69.7189408  29.1920000
 117.9949408  61.5439408   9.2960000 117.6689408  60.7739408   9.7610000
 117.5859408  61.4939408   8.4320000  94.1849408  79.2609408  15.5620000
  93.2749408  79.4589408  15.3410000  94.2369408  79.3929408  16.5080000
 111.5719408  76.0879408  19.4610000 111.2589408  76.5549408  20.2350000
 112.0279408  75.3219408  19.8100000 114.5889408  72.8039408  18.0590000
 115.3309408  72.2919408  17.7360000 114.9889408  73.5189408  18.5550000
  92.6959408  64.0899408  21.8710000  92.3059408  63.5869408  21.1560000
  92.9999408  64.8979408  21.4560000 112.9719408  89.7709408   6.6800000
 112.3179408  90.1079408   7.2920000 113.6439408  89.3789408   7.2390000
 120.0319408  69.3559408   7.3470000 119.0959408  69.2539408   7.5190000
 120.1719408  68.9109408   6.5120000 102.1399408  67.4559408  12.2220000
 103.0799408  67.4309408  12.0430000 101.9669408  66.6499408  12.7080000
 112.2569408  72.3619408  11.4830000 111.7519408  73.1539408  11.2990000
 112.2079408  71.8529408  10.6740000 117.9939408  68.9349408  18.7130000
 118.8849408  68.7869408  19.0320000 117.4419408  68.4079408  19.2910000
  92.6369408  68.9269408   8.6340000  93.0599408  69.1289408   9.4690000
  91.7709408  69.3279408   8.7010000  91.9669408  68.2519408  18.4270000
  92.8179408  68.6559408  18.5950000  91.4089408  68.5619408  19.1400000
 117.5039408  65.9579408  12.6760000 117.6349408  65.1329408  12.2080000
 117.4329408  66.6169408  11.9850000  96.0659408  63.5049408   3.3350000
  95.7129408  64.3689408   3.5490000  95.3759408  63.0859408   2.8200000
 110.1629408  63.2489408   7.1740000 110.7889408  62.6829408   7.6270000
 109.4289408  63.3299408   7.7820000 106.8479408  89.6619408  10.6200000
 106.3209408  89.0759408  11.1630000 106.2789408  89.8849408   9.8840000
  95.8869408  70.2809408   5.3640000  95.6359408  70.8369408   6.1020000
  95.8729408  70.8659408   4.6070000 105.9519408  75.9449408   0.6750000
 105.0699408  75.6069408   0.8280000 106.3909408  75.2529408   0.1800000
 112.1649408  67.7679408   8.6350000 113.0789408  67.4839408   8.6030000
 112.1279408  68.5239408   8.0490000 114.3869408  70.8979408   7.2380000
 114.6949408  71.3449408   8.0260000 115.0989408  71.0059408   6.6070000
 107.1799408  84.4859408  11.5940000 107.1339408  84.0919408  10.7230000
 107.8769408  85.1389408  11.5260000 117.1109408  67.9229408  10.7590000
 116.6699408  68.6599408  11.1820000 117.2859408  68.2279408   9.8680000
 114.4309408  68.2329408   0.1660000 114.9999408  68.8329408  -0.3160000
 114.9499408  67.9689408   0.9260000 117.6649408  77.8339408  20.4340000
 117.0099408  77.9209408  21.1270000 117.7929408  78.7259408  20.1110000
 110.4459408  65.7249408   5.9510000 110.6899408  64.9389408   6.4390000
 111.2809408  66.0999408   5.6680000  94.0989408  77.2339408  20.9040000
  93.5579408  77.6299408  20.2210000  94.7849408  77.8809408  21.0720000
 113.0409408  85.6989408   7.7480000 112.2169408  86.1149408   7.4950000
 113.0589408  84.8799408   7.2530000 105.0709408  63.1099408  11.9730000
 105.9309408  62.7019408  11.8700000 104.5769408  62.4959408  12.5170000
  91.2549408  66.8109408  14.1630000  90.3669408  66.7379408  14.5100000
  91.5479408  67.6809408  14.4330000  91.2039408  78.3319408   8.1590000
  91.7869408  78.4599408   8.9080000  90.4139408  77.9419408   8.5330000
 100.8509408  78.0429408  20.5640000 101.5169408  77.8769408  19.8970000
 100.6929408  77.1879408  20.9640000 115.3289408  73.5029408  11.5810000
 115.0329408  74.2309408  12.1270000 116.1189408  73.1829408  12.0170000
 117.1119408  87.8559408  14.3000000 116.6299408  87.3489408  14.9530000
 118.0099408  87.8809408  14.6300000 114.7879408  62.1149408   5.8990000
 114.1839408  61.3719408   5.9120000 115.6579408  61.7159408   5.9040000
 109.4179408  75.1679408  16.0930000 110.2329408  74.6729408  16.0060000
 109.6999408  76.0539408  16.3210000 117.7659408  73.5989408   3.8470000
 117.7389408  73.8419408   4.7720000 117.9009408  74.4269408   3.3850000
  95.1689408  74.5189408  16.3780000  95.8409408  74.4369408  17.0540000
  94.4199408  74.9079408  16.8290000 114.5049408  63.7859408   8.3370000
 114.6659408  63.1259408   7.6630000 115.3689408  63.9629408   8.7110000
 117.8919408  75.9599408   1.8140000 117.0629408  75.4949408   1.6950000
 118.2699408  76.0039408   0.9360000 111.4209408  65.9589408  13.7260000
 110.7449408  66.4539408  13.2630000 112.0389408  65.6999408  13.0420000
  94.4059408  70.8699408   1.0480000  93.6999408  71.4429408   1.3470000
  95.1239408  71.0339408   1.6600000 107.9489408  77.1749408  11.2960000
 107.9059408  76.2389408  11.0990000 108.8179408  77.2979408  11.6800000
 115.4809408  71.9639408   9.4060000 115.1199408  72.5119408  10.1030000
 116.2799408  71.5939408   9.7810000 117.2379408  64.9699408   8.0610000
 117.3909408  65.8909408   8.2740000 117.5609408  64.8749408   7.1650000
 114.1389408  68.9709408  24.3760000 113.4629408  68.4299408  23.9690000
 114.9209408  68.4189408  24.3760000 106.7859408  78.4209408   1.6810000
 106.7219408  77.5299408   1.3370000 107.4129408  78.8559408   1.1040000
 112.8489408  73.5719408  19.9600000 113.5609408  73.2709408  19.3950000
 112.1069408  73.0129408  19.7290000 113.2589408  60.4689408  14.2250000
 113.7039408  59.7619408  13.7580000 113.9489408  61.1049408  14.4120000
  98.5139408  78.9249408   4.6940000  98.4449408  77.9949408   4.9100000
  97.8739408  79.0569408   3.9950000  90.9149408  72.1979408   3.5130000
  90.7669408  72.8599408   2.8380000  90.2449408  71.5339408   3.3490000
 106.2619408  65.6629408  11.8050000 107.1559408  65.3529408  11.9450000
 105.7269408  64.8699408  11.8260000 115.2609408  62.5219408  15.1500000
 116.1599408  62.1979408  15.2140000 115.1129408  62.6349408  14.2110000
 116.0369408  69.7699408  12.4210000 116.3529408  69.1019408  13.0300000
 115.0999408  69.8379408  12.6050000 113.0209408  68.4339408   3.5050000
 113.2149408  69.3699408   3.4500000 113.4379408  68.1499408   4.3190000
 108.3969408  61.7669408   4.5070000 108.1719408  61.0319408   5.0770000
 109.3529408  61.8069408   4.5340000 119.4079408  80.4649408  12.4830000
 118.5159408  80.4729408  12.8300000 119.2959408  80.4509408  11.5330000
 109.9099408  68.3669408  10.0660000 109.9099408  69.2509408   9.6990000
 110.6139408  67.9149408   9.6030000 112.6919408  71.3699408  26.1520000
 112.7639408  70.5559408  25.6530000 113.5839408  71.5479408  26.4510000
 112.3429408  77.8229408  13.7280000 112.4789408  78.5569408  14.3260000
 111.4959408  77.9999408  13.3180000 108.5539408  78.9259408  24.6820000
 108.7939408  78.2999408  25.3660000 109.3529408  79.4279408  24.5250000
  90.9789408  71.7839408   6.4660000  90.8059408  71.5689408   5.5490000
  90.8379408  70.9619408   6.9360000 108.5449408  66.2349408   8.9460000
 108.6869408  66.3049408   8.0020000 108.8589408  67.0669408   9.2990000
 107.5829408  62.1169408  11.6990000 107.5359408  61.9249408  12.6360000
 107.4419408  61.2719408  11.2740000 113.0879408  66.0449408   2.2860000
 113.1179408  66.9629408   2.5550000 112.5769408  66.0479408   1.4770000
 109.4299408  89.0179408   0.8690000 110.3869408  89.0099408   0.8630000
 109.1899408  88.4979408   1.6360000 113.0929408  64.5809408  26.6170000
 113.7929408  64.1529408  26.1250000 112.4559408  64.8409408  25.9520000
 119.4029408  81.3029408  16.8030000 119.1189408  82.1149408  16.3830000
 120.2919408  81.4879408  17.1050000 119.9999408  63.3119408   8.7350000
 119.2879408  62.6869408   8.8720000 119.6239408  64.1599408   8.9690000
  97.9229408  60.9289408   7.0610000  98.3859408  61.4039408   7.7510000
  97.6119408  61.6119408   6.4670000 116.0629408  66.2019408   2.8730000
 116.7759408  66.4759408   2.2960000 115.4759408  65.7009408   2.3070000
 115.4119408  80.8149408   1.5320000 115.4999408  80.9999408   0.5970000
 116.2239408  80.3649408   1.7650000 118.3659408  65.4669408  19.3010000
 118.8039408  65.9929408  18.6320000 118.0599408  64.6899408  18.8330000
 103.7059408  60.8079408  28.7940000 102.8089408  60.6749408  29.0990000
 104.2449408  60.6919408  29.5770000 110.9419408  64.3839408  17.7550000
 110.5819408  63.9059408  17.0080000 111.5239408  65.0359408  17.3640000
 119.4049408  69.7769408   1.2160000 119.7829408  69.6169408   0.3520000
 118.8879408  68.9919408   1.4010000 111.4199408  73.2069408  24.2540000
 111.6209408  72.3409408  24.6100000 111.2789408  73.0559408  23.3200000
 119.1759408  70.3779408  22.4850000 118.2839408  70.5879408  22.2080000
 119.0939408  70.1619408  23.4140000 117.5159408  71.6489408  18.8270000
 117.5849408  70.6959408  18.7670000 117.6049408  71.8379408  19.7610000
 114.1129408  61.7349408  28.1150000 114.7809408  61.4299408  27.5010000
 114.4059408  62.6089408  28.3730000 111.7639408  73.3609408   2.3840000
 111.7739408  73.7069408   1.4920000 110.9559408  72.8499408   2.4340000
  90.6829408  64.4809408  26.5800000  90.8219408  64.3349408  25.6450000
  90.8769408  65.4089408  26.7100000 118.0309408  85.7699408   0.2010000
 117.6519408  86.3839408  -0.4290000 118.7909408  86.2309408   0.5560000
 111.1939408  64.9999408  24.4080000 110.3499408  65.2639408  24.7730000
 111.2559408  64.0639408  24.5980000 116.5439408  65.5789408  25.9390000
 115.8209408  64.9659408  25.8060000 117.3229408  65.0939408  25.6660000
 118.7599408  88.1839408   3.0480000 118.8759408  87.2849408   3.3560000
 119.4779408  88.3219408   2.4310000  92.6489408  67.0719408  23.3300000
  92.9159408  67.8839408  22.8980000  92.1039408  66.6239408  22.6820000
 112.4329408  84.4709408   0.8190000 111.6569408  84.3989408   1.3750000
 112.5059408  83.6149408   0.3970000 117.0089408  67.7539408  20.9100000
 117.1639408  67.5669408  21.8360000 116.1749408  67.3249408  20.7160000
  93.2349408  78.6979408  24.7910000  92.6099408  77.9739408  24.8150000
  94.0829408  78.2909408  24.9680000 109.5569408  79.2589408   4.7920000
 109.8279408  78.5009408   4.2750000 109.5719408  79.9889408   4.1730000
 116.9399408  70.5709408   5.5480000 117.2969408  71.4359408   5.7460000
 117.5429408  70.2049408   4.9000000 112.1869408  67.3489408  23.2340000
 112.6329408  67.2299408  22.3960000 111.9849408  66.4599408  23.5270000
  91.7139408  64.7479408   4.2270000  91.3929408  64.3309408   3.4270000
  91.0859408  64.4889408   4.9010000 116.7119408  88.8939408   1.2240000
 117.5319408  88.5429408   1.5710000 116.3319408  89.3829408   1.9540000
 114.1759408  78.5089408   1.7660000 114.5339408  79.3739408   1.5650000
 114.8279408  78.1069408   2.3410000 115.2449408  75.1359408  19.2390000
 114.6809408  75.3399408  19.9860000 115.0279408  75.8009408  18.5860000
 117.8889408  62.9389408   0.7890000 117.1389408  62.3659408   0.9500000
 117.5709408  63.8159408   1.0000000 107.5889408  65.9449408  21.8650000
 107.9269408  65.0509408  21.9150000 108.2399408  66.4199408  21.3480000
 108.6329408  63.7929408  27.6990000 109.4459408  63.2949408  27.6140000
 108.5859408  64.0199408  28.6280000 110.0679408  66.6019408  20.6770000
 110.4109408  65.7399408  20.4420000 110.8469408  67.1369408  20.8290000
 119.4139408  63.1659408  16.0720000 119.2369408  62.3849408  16.5970000
 118.9069408  63.8589408  16.4960000 107.8799408  67.6249408  24.1220000
 107.7579408  66.6759408  24.0920000 107.0159408  67.9709408  24.3480000
 111.5639408  75.6829408  25.4200000 112.2419408  75.5029408  26.0710000
 111.3869408  74.8329408  25.0160000 119.8499408  62.5939408  28.7080000
 119.3119408  62.9239408  29.4270000 119.7199408  63.2259408  28.0010000
 114.0009408  64.7069408   5.0710000 113.8849408  64.5229408   4.1390000
 114.2479408  63.8649408   5.4530000 118.6979408  64.9809408  23.9730000
 119.2289408  65.6649408  24.3820000 119.2709408  64.2149408  23.9480000
  92.5169408  63.7909408  28.9940000  92.3399408  64.7299408  29.0370000
  92.0049408  63.4829408  28.2460000  99.8899408  71.8059408  17.1790000
 100.2009408  71.2239408  17.8720000 100.1229408  71.3559408  16.3660000
 113.6059408  72.7209408  14.1930000 113.3069408  72.6279408  13.2890000
 113.8659408  73.6389408  14.2670000 113.0969408  67.0939408  20.7320000
 113.5719408  67.7899408  20.2780000 113.5829408  66.2959408  20.5220000
  90.1209408  67.1739408  25.0360000  91.0009408  67.3079408  24.6820000
  89.6779408  68.0119408  24.9010000 111.2829408  64.2129408  10.2370000
 112.1709408  64.4309408  10.5200000 110.9569408  65.0169408   9.8310000
  95.2779408  71.5559408   7.5480000  94.8449408  70.9229408   8.1220000
  95.5749408  72.2489408   8.1370000  96.0519408  66.0389408  12.9900000
  96.7619408  65.9259408  12.3580000  95.9799408  66.9859408  13.1040000
  90.5089408  69.7659408  13.8980000  89.8269408  69.7809408  14.5700000
  90.2249408  69.0889408  13.2830000 112.0069408  73.9469408  16.1180000
 112.6479408  73.3789408  15.6900000 112.4899408  74.3509408  16.8390000
 111.3509408  83.5839408  27.1550000 112.0519408  84.1379408  26.8110000
 110.8199408  84.1729408  27.6900000  93.1369408  75.9089408  17.4420000
  93.2879408  76.7359408  17.8990000  92.3239408  76.0479408  16.9560000
 114.1139408  63.7159408  21.1230000 114.5879408  64.4759408  20.7840000
 114.5419408  63.5189408  21.9560000 103.7419408  66.4529408  15.6390000
 104.2449408  66.8479408  14.9270000 103.4279408  67.1979408  16.1520000
  93.9139408  74.3159408  20.0960000  93.3239408  75.0459408  20.2810000
  93.8699408  74.2069408  19.1460000 109.3529408  69.0949408  19.9650000
 108.9699408  69.8979408  20.3180000 109.1119408  68.4159408  20.5960000
 107.2159408  62.2419408  14.2630000 107.4569408  61.6839408  15.0030000
 106.9959408  63.0849408  14.6600000  96.1759408  63.6459408  23.8610000
  97.0319408  63.4339408  24.2340000  95.6269408  63.8449408  24.6190000
  92.0539408  72.5049408  21.6720000  92.7779408  73.0489408  21.3630000
  91.3189408  72.7389408  21.1060000 117.4739408  68.2959408   7.3770000
 117.0789408  69.0559408   6.9490000 117.4529408  67.6089408   6.7110000
  94.6389408  68.2059408   0.3610000  94.5499408  69.1419408   0.5400000
  95.5799408  68.0399408   0.4160000  93.5789408  65.2939408  14.7230000
  94.2869408  65.7469408  14.2640000  92.8469408  65.9109408  14.7040000
 104.3679408  68.5949408  20.4910000 104.4269408  69.5469408  20.5680000
 104.3979408  68.4279408  19.5490000 109.6399408  77.0629408  21.6660000
 110.2749408  77.2579408  22.3550000 109.4069408  77.9179408  21.3040000
 117.1349408  72.3819408  21.4320000 116.3539408  71.8949408  21.6950000
 117.7049408  72.3559408  22.2000000  91.7099408  64.5589408  17.3620000
  91.2679408  64.1129408  16.6390000  91.0809408  65.2169408  17.6580000
  93.7859408  63.1389408   5.5410000  94.7399408  63.2159408   5.5740000
  93.5029408  63.8839408   5.0110000 112.3099408  70.3559408  21.7640000
 111.7209408  71.1059408  21.6740000 111.7629408  69.6659408  22.1410000
 118.6129408  80.5529408  20.3810000 119.2029408  80.8629408  21.0670000
 118.5069408  81.3039408  19.7970000 108.5159408  85.7009408   0.7170000
 108.6129408  86.6029408   1.0230000 109.1969408  85.5999408   0.0510000
 114.3199408  75.3179408  13.4330000 113.7379408  76.0469408  13.2200000
 114.8819408  75.6559408  14.1310000 112.5469408  75.5769408   4.2880000
 111.8889408  76.0879408   3.8160000 112.4899408  74.7009408   3.9070000
 109.5539408  60.0589408  17.2370000 109.8519408  60.3489408  16.3750000
 108.6799408  60.4369408  17.3290000 111.9709408  89.7309408   4.2900000
 111.4919408  90.5529408   4.3860000 112.2929408  89.5359408   5.1700000
 109.7779408  83.9979408  13.5600000 110.2779408  84.1409408  12.7560000
 110.3799408  83.5269408  14.1360000 106.2369408  62.5929408   7.0360000
 106.4979408  61.7169408   6.7530000 107.0569408  63.0199408   7.2820000
 107.8549408  63.6489408   8.8230000 108.0219408  64.5789408   8.9790000
 107.6949408  63.2839408   9.6930000 110.3289408  84.1079408   2.8240000
 109.6049408  84.5969408   2.4350000 110.2499408  84.2699408   3.7640000
 111.6989408  60.0119408  19.4060000 112.3109408  59.7979408  18.7010000
 110.9559408  60.4209408  18.9620000 117.1489408  81.4149408   8.1260000
 117.0169408  81.9989408   8.8730000 116.3659408  80.8649408   8.1090000
 111.1139408  62.1109408   4.7390000 111.1109408  62.6599408   5.5240000
 111.5609408  62.6399408   4.0780000 112.0079408  70.1399408  16.2200000
 111.9829408  70.3189408  15.2790000 112.8879408  69.7949408  16.3750000
 106.6089408  78.0909408  13.3550000 106.7289408  77.5009408  12.6110000
 107.4469408  78.5439408  13.4390000 117.8639408  77.4319408   9.3610000
 117.7469408  77.2979408  10.3010000 118.3079408  78.2779408   9.2930000
  91.0329408  85.6039408  13.9710000  90.2089408  85.2399408  14.2930000
  91.2309408  85.0919408  13.1870000  91.9339408  89.6879408  18.6420000
  92.2469408  88.7839408  18.6550000  91.5109408  89.7829408  17.7880000
  91.1559408  78.4609408  20.0400000  90.2709408  78.7809408  19.8660000
  91.0349408  77.5459408  20.2950000  92.0799408  88.3339408   3.5080000
  91.6479408  88.7749408   2.7770000  92.4669408  89.0439408   4.0210000
 107.4589408  79.6149408   6.9330000 106.5709408  79.2699408   7.0270000
 107.7209408  79.3639408   6.0470000 116.6749408  77.5639408  13.5590000
 116.2789408  77.7839408  14.4030000 116.8119408  76.6169408  13.5990000
 109.9319408  83.5469408   5.4520000 109.4589408  82.7149408   5.4690000
 110.8459408  83.3059408   5.6030000 113.0439408  81.6259408  13.4910000
 112.5689408  81.6099408  12.6600000 113.9519408  81.4399408  13.2520000
 111.5259408  87.0239408   3.9340000 111.8329408  86.7029408   3.0860000
 111.8009408  87.9409408   3.9570000 112.5659408  83.1829408   6.2490000
 112.5139408  82.3989408   6.7960000 113.4839408  83.2299408   5.9820000
 115.2289408  63.2469408  12.4100000 114.8559408  62.6399408  11.7710000
 116.0849408  63.4789408  12.0500000  93.0529408  86.7679408  15.5720000
  92.4119408  86.2939408  15.0430000  93.1159408  87.6289408  15.1590000
 114.1119408  81.8259408   3.7350000 114.7569408  82.4489408   4.0690000
 114.4369408  81.5849408   2.8680000 115.3229408  76.5199408   3.7300000
 115.4299408  75.8639408   3.0410000 114.4889408  76.2979408   4.1450000
 115.6729408  80.8899408  23.2500000 115.9379408  81.6929408  22.8020000
 115.0279408  80.4909408  22.6670000 118.0719408  75.0429408  14.1250000
 118.3279408  74.1539408  13.8810000 118.7059408  75.6059408  13.6790000
 111.4969408  77.6769408   8.9910000 110.6869408  77.9649408   9.4120000
 111.2069408  77.1699408   8.2330000 111.3089408  81.2979408  10.9070000
 110.3719408  81.3809408  11.0840000 111.3559408  80.9219408  10.0280000
 109.7129408  81.5399408   7.5910000 109.1179408  80.8719408   7.2500000
 110.5109408  81.0599408   7.8100000 113.7039408  77.7479408  10.5130000
 114.1529408  76.9339408  10.2860000 112.9529408  77.7799408   9.9200000
 117.4709408  85.8359408   6.5070000 117.7579408  84.9329408   6.6370000
 117.3959408  85.9299408   5.5570000 118.9979408  75.2499408  17.3840000
 118.6679408  75.0439408  18.2580000 118.5579408  74.6249408  16.8080000
 107.0249408  82.7099408  17.6690000 106.8809408  82.0149408  17.0260000
 106.7759408  83.5139408  17.2140000 115.5159408  62.1409408   2.2740000
 114.6969408  62.6339408   2.2290000 115.2789408  61.3189408   2.7030000
 117.8379408  76.4779408   4.9610000 117.1649408  76.4449408   4.2810000
 118.2269408  77.3489408   4.8720000 108.1619408  71.4479408  18.1310000
 108.1129408  71.6889408  19.0560000 109.0279408  71.7449408  17.8520000
 101.7949408  64.1809408  15.4660000 101.0579408  64.3869408  16.0420000
 102.4969408  64.7619408  15.7580000 114.6279408  89.7129408   3.2650000
 113.6809408  89.5999408   3.3410000 114.9819408  89.3039408   4.0550000
 114.1549408  88.4689408   8.6710000 114.9869408  87.9959408   8.6860000
 113.5239408  87.8559408   9.0480000 117.6299408  88.3429408   7.5860000
 117.5669408  87.3909408   7.5050000 117.5549408  88.5079408   8.5260000
 118.6429408  83.4169408   2.1320000 119.5469408  83.7219408   2.2000000
 118.2299408  84.0239408   1.5180000 108.1019408  89.3339408  13.8490000
 108.8249408  89.9569408  13.9170000 108.5209408  88.5029408  13.6270000
  90.8829408  75.8929408  20.9960000  91.0199408  75.6469408  21.9110000
  90.0429408  75.4959408  20.7640000  97.1339408  83.6299408  17.5170000
  96.9599408  84.4419408  17.0430000  97.4829408  83.0339408  16.8540000
  94.8129408  80.6049408  20.3340000  94.8989408  81.5329408  20.5520000
  94.8869408  80.1529408  21.1740000 115.3029408  86.0099408  11.7730000
 115.0519408  85.5969408  10.9470000 114.6769408  86.7259408  11.8830000
 105.4609408  83.4619408   3.0360000 105.9439408  83.2799408   2.2300000
 105.3659408  82.6069408   3.4560000 103.5109408  87.9189408  15.3630000
 104.4469408  87.8499408  15.5500000 103.2639408  87.0499408  15.0470000
 115.1669408  85.1589408   1.8110000 114.2559408  84.8679408   1.8270000
 115.3879408  85.2049408   0.8810000 111.1539408  87.1659408   6.5480000
 111.4189408  86.9389408   5.6570000 111.5359408  88.0299408   6.7000000
 106.0469408  64.5639408  15.7710000 106.0809408  64.5099408  16.7260000
 105.4529408  65.2939408  15.5940000  92.8799408  87.4629408  12.2670000
  92.0239408  87.0379408  12.2150000  93.2679408  87.3299408  11.4030000
 118.6919408  79.2009408   3.8620000 119.5599408  78.8229408   3.7170000
 118.1619408  78.8679408   3.1380000 117.3199408  78.8899408   1.5420000
 117.8129408  79.1749408   0.7720000 117.3469408  77.9339408   1.5040000
  90.1709408  85.8719408   3.6420000  90.6029408  85.3299408   2.9810000
  90.8439408  86.4929408   3.9200000 111.9069408  80.2649408   8.2860000
 111.7919408  79.3209408   8.3890000 112.4119408  80.3589408   7.4790000
 110.8209408  85.7819408  11.5460000 110.6039408  85.9449408  10.6280000
 110.7959408  86.6459408  11.9560000 117.3569408  61.1799408   6.2670000
 117.6309408  61.6629408   5.4870000 118.0139408  60.4909408   6.3660000
 108.4929408  80.8929408  11.3400000 108.2899408  80.2629408  10.6490000
 107.8709408  81.6069408  11.2050000 117.5929408  88.9229408  10.4380000
 117.4519408  89.3709408  11.2720000 118.5019408  88.6269408  10.4740000
  99.8979408  88.3239408  17.5680000 100.5479408  87.6229408  17.5210000
  99.0609408  87.8869408  17.4100000 102.2699408  76.4249408  28.7760000
 102.9509408  77.0969408  28.8060000 102.4539408  75.9319408  27.9760000
 119.5049408  69.6089408   3.9390000 119.2369408  69.4409408   3.0360000
 120.3389408  69.1489408   4.0320000 114.9399408  88.5519408  12.8940000
 115.6679408  88.0659408  13.2810000 115.3499408  89.3119408  12.4820000
  90.9209408  89.9589408   9.9480000  91.4189408  89.3979408   9.3520000
  90.0779408  90.0829408   9.5120000  90.1289408  60.2789408   6.1440000
  90.1339408  60.2069408   5.1890000  90.6739408  59.5509408   6.4420000
 110.1059408  86.3139408   8.9570000 110.3829408  86.3689408   8.0430000
 109.8789408  87.2129408   9.1940000 107.8029408  61.4979408   2.0150000
 107.8179408  61.3079408   2.9530000 107.9959408  60.6579408   1.5970000
 111.2849408  81.4409408   3.2030000 112.1909408  81.6019408   3.4660000
 110.9289408  82.3109408   3.0260000 114.8339408  78.1349408  15.5300000
 115.1179408  77.2749408  15.8380000 114.2629408  78.4619408  16.2250000
 115.9399408  83.0769408  10.1740000 115.0409408  82.8989408  10.4490000
 115.8779408  83.8789408   9.6550000  90.5509408  83.0329408   8.3860000
  90.1859408  83.4379408   7.6000000  89.8569408  83.1109408   9.0410000
 111.0919408  62.8469408  27.7180000 111.6289408  62.2659408  28.2570000
 111.7059408  63.5029408  27.3870000 116.0789408  88.6559408   5.3270000
 116.5179408  88.9459408   6.1270000 116.5309408  87.8469408   5.0860000
 111.9989408  87.5469408   1.0180000 112.9239408  87.6119408   0.7810000
 111.7279408  86.6889408   0.6910000 107.6129408  80.7449408   3.2240000
 107.4149408  79.8939408   2.8320000 107.7729408  81.3209408   2.4770000
 119.3329408  80.1069408   9.6110000 120.1389408  80.5079408   9.2850000
 118.7129408  80.1949408   8.8870000 119.7389408  61.2499408  22.7270000
 119.9719408  60.5979408  22.0660000 118.7969408  61.1349408  22.8560000
 116.4519408  78.2429408  23.9800000 116.5979408  79.0739408  23.5290000
 115.5169408  78.0689408  23.8690000 113.8769408  81.7659408  27.1800000
 114.5629408  82.2469408  26.7180000 113.0929408  82.3049408  27.0720000
 118.0669408  75.0089408  20.1910000 118.0739408  75.9439408  19.9830000
 117.1889408  74.8459408  20.5340000 117.8099408  77.9179408  26.6380000
 117.3599408  78.3039408  25.8870000 117.8709408  76.9859408  26.4280000
 116.1169408  60.6769408  26.5390000 115.8869408  60.0879408  25.8210000
 116.9099408  60.2969408  26.9170000 114.0979408  72.2559408  29.3850000
 113.7049408  73.1289408  29.3770000 113.3609408  71.6629408  29.5350000
  93.7959408  62.6399408   1.5360000  93.1589408  63.0979408   0.9870000
  93.2689408  62.0539408   2.0780000 110.7379408  63.9019408  20.2470000
 110.8629408  63.9519408  19.3000000 111.6089408  64.0529408  20.6130000
 106.8359408  61.2099408  27.0900000 107.4759408  60.5949408  27.4500000
 107.1229408  62.0669408  27.4050000 116.1579408  86.4039408   3.9090000
 115.6669408  87.2129408   4.0520000 115.8099408  86.0549408   3.0890000
 114.4219408  69.4159408  20.1160000 115.2529408  69.6309408  20.5400000
 113.7539408  69.7569408  20.7110000  92.7039408  81.1609408   0.5350000
  91.8629408  81.6189408   0.5440000  92.8899408  81.0209408  -0.3940000
 113.9579408  61.6669408  23.3620000 113.0839408  61.9459408  23.6370000
 114.0009408  60.7409408  23.6010000 113.5929408  80.4459408   6.1030000
 114.4549408  80.0469408   6.2220000 113.6239408  80.8299408   5.2270000
 119.3579408  66.4659408  21.7420000 118.9689408  66.1709408  20.9190000
 119.0259408  65.8529408  22.3980000  95.0389408  80.2599408  23.3180000
  95.4329408  80.8059408  23.9980000  94.2329408  79.9279408  23.7140000
 112.3159408  60.6029408   0.0200000 112.8489408  60.3259408   0.7650000
 112.9519408  60.8169408  -0.6630000  92.0639408  62.4419408  19.6400000
  92.0359408  63.1009408  18.9460000  91.3919408  61.8059408  19.3950000
 106.0279408  89.2599408  18.5900000 105.0909408  89.1729408  18.4130000
 106.1359408  88.9249408  19.4800000  90.8689408  66.2169408   0.9050000
  91.1979408  66.6709408   0.1290000  91.6129408  66.1979408   1.5060000
 100.0009408  86.2329408  21.9690000 100.8279408  85.7619408  22.0740000
 100.2609408  87.1449408  21.8330000 103.1139408  89.2469408  18.1040000
 103.4209408  88.6579408  17.4150000 102.3449408  89.6749408  17.7280000
 111.2879408  65.2629408  59.9310000 110.5409408  64.9539408  60.4440000
 110.9199408  65.9259408  59.3470000 111.1249408  61.1489408  51.7350000
 110.9649408  60.2999408  51.3230000 111.6349408  61.6379408  51.0890000
 118.0369408  65.5629408  35.5490000 117.0969408  65.6829408  35.4130000
 118.2159408  64.6789408  35.2300000 118.7999408  69.9389408  45.7730000
 117.8609408  69.9999408  45.5990000 118.8569408  69.5959408  46.6650000
 103.5299408  74.6779408  30.5350000 102.9009408  73.9769408  30.7060000
 103.0779408  75.2629408  29.9270000 112.4549408  63.6049408  32.6640000
 111.6819408  63.5749408  32.1000000 112.7979408  64.4919408  32.5530000
  91.5759408  61.8369408  42.3790000  91.6699408  61.3979408  41.5340000
  91.7809408  62.7539408  42.1980000 107.3339408  61.3149408  47.3720000
 107.1459408  62.1649408  47.7700000 106.5919408  60.7639408  47.6200000
 110.9309408  68.1219408  47.8530000 110.4899408  68.4399408  48.6410000
 111.2959408  68.9089408  47.4480000 119.0709408  62.3679408  43.5800000
 119.1899408  62.7229408  44.4610000 119.9599408  62.2269408  43.2550000
 103.9419408  87.7469408  41.2050000 103.6119408  87.6369408  42.0970000
 103.2129408  88.1429408  40.7270000  98.0199408  61.0509408  44.0630000
  98.1869408  61.8039408  43.4960000  98.5849408  61.1939408  44.8240000
  94.4319408  59.9699408  39.1520000  94.9539408  60.3289408  39.8690000
  93.7079408  60.5879408  39.0490000 118.8019408  66.7519408  45.1170000
 118.5949408  66.3399408  44.2790000 117.9779408  67.1509408  45.3980000
 110.3539408  61.1919408  44.3940000 111.2449408  61.0649408  44.0680000
 110.3279408  62.1089408  44.6690000  95.9609408  61.2959408  40.8390000
  96.7089408  61.8909408  40.8830000  95.2019408  61.8499408  41.0230000
 107.9639408  64.7779408  30.3340000 107.0519408  65.0459408  30.4500000
 108.1979408  64.3589408  31.1630000 118.4819408  70.9349408  39.6410000
 118.8959408  71.1749408  40.4700000 118.9019408  71.4979408  38.9910000
 114.8209408  67.4299408  38.6100000 114.9309408  66.7309408  37.9650000
 115.4989408  68.0679408  38.3900000 113.5869408  71.2759408  33.3410000
 112.6949408  71.6219408  33.3230000 114.1119408  71.9439408  32.9000000
 110.1159408  63.8369408  45.0270000 110.6079408  64.5009408  44.5440000
 109.2639408  63.8059408  44.5920000 114.7679408  66.0699408  47.1460000
 113.8289408  66.0299408  46.9640000 115.1819408  65.7409408  46.3480000
  94.3739408  62.0349408  52.5920000  95.0449408  62.5869408  52.9950000
  93.7539408  62.6539408  52.2080000  91.7749408  60.6259408  58.9360000
  92.5749408  61.0719408  59.2140000  91.1079408  61.3129408  58.9280000
 118.9339408  59.9049408  57.3680000 119.3039408  60.6489408  57.8430000
 119.4589408  59.8439408  56.5700000 120.1159408  68.1649408  41.4220000
 120.1929408  67.2509408  41.1470000 119.2939408  68.4639408  41.0340000
 111.0649408  69.6399408  32.0140000 111.5329408  69.0169408  32.5690000
 111.5449408  69.6309408  31.1850000 111.5419408  62.2789408  54.3060000
 111.1949408  62.1159408  53.4290000 111.4429408  61.4439408  54.7630000
 104.6329408  83.1429408  40.1660000 104.8209408  83.6079408  39.3500000
 104.7559408  82.2189408  39.9490000 118.4329408  61.3169408  47.7720000
 118.3759408  60.3929408  48.0160000 118.3789408  61.7879408  48.6040000
 101.2709408  89.4239408  30.7540000 101.1439408  89.1009408  29.8620000
 100.7259408  90.2099408  30.8040000 102.8559408  62.0519408  39.6080000
 103.6339408  61.5559408  39.8640000 102.6389408  62.5739408  40.3800000
 110.0859408  63.0319408  31.4180000 110.4329408  62.3479408  30.8450000
 109.2249408  62.7079408  31.6830000 118.1769408  62.4219408  50.1510000
 117.3749408  62.2089408  50.6290000 118.4289408  63.2859408  50.4760000
  90.9919408  59.9949408  55.7370000  91.7769408  60.0659408  55.1940000
  91.2419408  60.3889408  56.5730000 116.3379408  68.5209408  44.7070000
 115.9319408  69.3879408  44.7270000 115.5999408  67.9109408  44.7000000
 102.0659408  88.8869408  39.7040000 101.2279408  88.5389408  39.3980000
 102.5209408  89.1529408  38.9050000 103.6439408  60.4429408  31.8470000
 102.8629408  60.2199408  31.3410000 103.6489408  61.3999408  31.8730000
  93.1739408  60.5829408  34.5740000  94.1289408  60.6499408  34.5680000
  92.8779408  61.4079408  34.9580000 117.3529408  60.3099408  42.8330000
 117.5099408  59.6729408  43.5300000 117.9369408  61.0399408  43.0390000
 100.2109408  88.4339408  41.9620000 101.0079408  88.2959408  41.4500000
 100.5229408  88.6039408  42.8510000 109.9039408  60.2909408  56.3150000
 109.3069408  60.0529408  57.0240000 110.2959408  61.1169408  56.5980000
 116.7709408  63.6649408  52.7270000 116.7729408  62.8369408  53.2070000
 117.3549408  64.2339408  53.2270000 108.4869408  68.0279408  31.6070000
 109.1999408  68.3819408  32.1380000 108.0509408  68.7999408  31.2450000
 115.0939408  63.0129408  55.4040000 114.7599408  62.6939408  54.5660000
 115.6369408  62.2969408  55.7340000  99.0859408  61.1759408  31.1750000
  98.4019408  60.5059408  31.1510000  98.6729408  61.9539408  30.8020000
  95.5019408  60.1759408  50.8970000  95.1519408  60.8029408  51.5300000
  95.3639408  59.3209408  51.3060000 113.4369408  68.0999408  44.6000000
 113.0629408  68.4679408  43.7990000 113.0709408  67.2169408  44.6520000
 117.4789408  63.9939408  40.6530000 117.3369408  64.2939408  39.7560000
 117.7139408  63.0699408  40.5640000 113.8419408  67.9109408  41.1330000
 113.2649408  68.4849408  40.6300000 114.5029408  67.6239408  40.5030000
 114.1399408  61.3499408  40.9420000 113.2239408  61.4689408  41.1920000
 114.1099408  60.7419408  40.2040000 117.7609408  62.7849408  33.9490000
 118.2159408  62.0179408  33.6010000 117.0409408  62.9349408  33.3370000
 115.9399408  65.4359408  44.7680000 116.1589408  65.8389408  43.9280000
 115.7629408  64.5199408  44.5560000 115.4509408  66.9699408  35.4990000
 114.8859408  66.2069408  35.3780000 115.7639408  67.1789408  34.6180000
 119.5329408  60.6999408  33.3760000 120.1959408  60.7629408  32.6890000
 119.1429408  59.8339408  33.2540000 116.7429408  63.6139408  47.8620000
 116.4659408  64.0829408  47.0750000 116.0469408  62.9769408  48.0200000
 109.8959408  67.7829408  59.2340000 109.4559408  67.5179408  58.4260000
 109.2739408  67.5689408  59.9280000 111.2669408  60.7559408  38.5830000
 111.3999408  61.0999408  39.4660000 110.5919408  60.0849408  38.6870000
 114.1839408  64.4299408  59.2750000 113.9199408  65.0219408  58.5710000
 113.4349408  64.4179408  59.8720000 117.0209408  60.6149408  53.3560000
 116.1119408  60.3729408  53.1770000 117.4589408  59.7839408  53.5400000
 113.3629408  65.0449408  41.8150000 113.7649408  65.8809408  41.5770000
 114.1039408  64.4649408  41.9930000 114.9759408  61.0289408  50.1130000
 114.6729408  61.3969408  49.2830000 114.4759408  61.4979408  50.7810000
  95.4109408  61.6389408  44.1010000  96.3529408  61.5459408  43.9540000
  95.1199408  62.2449408  43.4200000 102.0409408  63.7889408  30.3090000
 101.4489408  64.5119408  30.1020000 102.7159408  63.8299408  29.6310000
 114.4599408  62.0869408  47.5660000 114.6979408  62.1839408  46.6440000
 113.9199408  61.2969408  47.5930000 117.6739408  67.2299408  58.4930000
 118.1929408  68.0039408  58.2730000 117.5139408  66.7999408  57.6530000
 112.1169408  66.2239408  46.4610000 111.5759408  66.8179408  46.9810000
 111.6809408  66.1839408  45.6100000 117.9949408  61.5439408  39.2960000
 117.6689408  60.7739408  39.7610000 117.5859408  61.4939408  38.4320000
 120.0319408  69.3559408  37.3470000 119.0959408  69.2539408  37.5190000
 120.1719408  68.9109408  36.5120000 117.9939408  68.9349408  48.7130000
 118.8849408  68.7869408  49.0320000 117.4419408  68.4079408  49.2910000
 117.5039408  65.9579408  42.6760000 117.6349408  65.1329408  42.2080000
 117.4329408  66.6169408  41.9850000 107.1799408  84.4859408  41.5940000
 107.1339408  84.0919408  40.7230000 107.8769408  85.1389408  41.5260000
 117.1109408  67.9229408  40.7590000 116.6699408  68.6599408  41.1820000
 117.2859408  68.2279408  39.8680000 114.7879408  62.1149408  35.8990000
 114.1839408  61.3719408  35.9120000 115.6579408  61.7159408  35.9040000
 112.8469408  74.3839408  59.2860000 113.0729408  75.2939408  59.4810000
 112.3399408  74.4319408  58.4760000 114.5049408  63.7859408  38.3370000
 114.6659408  63.1259408  37.6630000 115.3689408  63.9629408  38.7110000
 111.4209408  65.9589408  43.7260000 110.7449408  66.4539408  43.2630000
 112.0389408  65.6999408  43.0420000 117.2379408  64.9699408  38.0610000
 117.3909408  65.8909408  38.2740000 117.5609408  64.8749408  37.1650000
 113.2589408  60.4689408  44.2250000 113.7039408  59.7619408  43.7580000
 113.9489408  61.1049408  44.4120000 115.2609408  62.5219408  45.1500000
 116.1599408  62.1979408  45.2140000 115.1129408  62.6349408  44.2110000
 116.0369408  69.7699408  42.4210000 116.3529408  69.1019408  43.0300000
 115.0999408  69.8379408  42.6050000 113.0209408  68.4339408  33.5050000
 113.2149408  69.3699408  33.4500000 113.4379408  68.1499408  34.3190000
 117.9889408  69.2129408  55.4190000 118.5799408  69.2639408  56.1700000
 117.4759408  70.0199408  55.4620000 113.0879408  66.0449408  32.2860000
 113.1179408  66.9629408  32.5550000 112.5769408  66.0479408  31.4770000
 113.0929408  64.5809408  56.6170000 113.7929408  64.1529408  56.1250000
 112.4559408  64.8409408  55.9520000 119.9999408  63.3119408  38.7350000
 119.2879408  62.6869408  38.8720000 119.6239408  64.1599408  38.9690000
 118.3659408  65.4669408  49.3010000 118.8039408  65.9929408  48.6320000
 118.0599408  64.6899408  48.8330000 110.9419408  64.3839408  47.7550000
 110.5819408  63.9059408  47.0080000 111.5239408  65.0359408  47.3640000
 113.8139408  76.7889408  59.7140000 113.7769408  77.3819408  60.4640000
 114.6549408  76.9789408  59.2980000 114.1129408  61.7349408  58.1150000
 114.7809408  61.4299408  57.5010000 114.4059408  62.6089408  58.3730000
 111.7639408  73.3609408  32.3840000 111.7739408  73.7069408  31.4920000
 110.9559408  72.8499408  32.4340000 111.1939408  64.9999408  54.4080000
 110.3499408  65.2639408  54.7730000 111.2559408  64.0639408  54.5980000
 116.5439408  65.5789408  55.9390000 115.8209408  64.9659408  55.8060000
 117.3229408  65.0939408  55.6660000 119.2179408  71.7099408  56.2810000
 119.3859408  71.1539408  57.0420000 119.5759408  72.5639408  56.5240000
 119.4139408  63.1659408  46.0720000 119.2369408  62.3849408  46.5970000
 118.9069408  63.8589408  46.4960000 119.8499408  62.5939408  58.7080000
 119.3119408  62.9239408  59.4270000 119.7199408  63.2259408  58.0010000
 114.0009408  64.7069408  35.0710000 113.8849408  64.5229408  34.1390000
 114.2479408  63.8649408  35.4530000 118.6979408  64.9809408  53.9730000
 119.2289408  65.6649408  54.3820000 119.2709408  64.2149408  53.9480000
 111.2829408  64.2129408  40.2370000 112.1709408  64.4309408  40.5200000
 110.9569408  65.0169408  39.8310000 114.1139408  63.7159408  51.1230000
 114.5879408  64.4759408  50.7840000 114.5419408  63.5189408  51.9560000
 118.1879408  72.5169408  59.3490000 119.0379408  72.9559408  59.3450000
 118.2049408  71.9679408  60.1330000 117.4739408  68.2959408  37.3770000
 117.0789408  69.0559408  36.9490000 117.4529408  67.6089408  36.7110000
 109.5539408  60.0589408  47.2370000 109.8519408  60.3489408  46.3750000
 108.6799408  60.4369408  47.3290000 111.6989408  60.0119408  49.4060000
 112.3109408  59.7979408  48.7010000 110.9559408  60.4209408  48.9620000
 111.1139408  62.1109408  34.7390000 111.1109408  62.6599408  35.5240000
 111.5609408  62.6399408  34.0780000 115.2289408  63.2469408  42.4100000
 114.8559408  62.6399408  41.7710000 116.0849408  63.4789408  42.0500000
 115.5159408  62.1409408  32.2740000 114.6969408  62.6339408  32.2290000
 115.2789408  61.3189408  32.7030000 108.1019408  89.3339408  43.8490000
 108.8249408  89.9569408  43.9170000 108.5209408  88.5029408  43.6270000
 117.3569408  61.1799408  36.2670000 117.6309408  61.6629408  35.4870000
 118.0139408  60.4909408  36.3660000  90.1289408  60.2789408  36.1440000
  90.1339408  60.2069408  35.1890000  90.6739408  59.5509408  36.4420000
 107.8029408  61.4979408  32.0150000 107.8179408  61.3079408  32.9530000
 107.9959408  60.6579408  31.5970000 111.0919408  62.8469408  57.7180000
 111.6289408  62.2659408  58.2570000 111.7059408  63.5029408  57.3870000
 119.7389408  61.2499408  52.7270000 119.9719408  60.5979408  52.0660000
 118.7969408  61.1349408  52.8560000 116.6279408  65.1689408  60.1560000
 115.8039408  64.7719408  59.8740000 116.6229408  66.0389408  59.7570000
 116.1169408  60.6769408  56.5390000 115.8869408  60.0879408  55.8210000
 116.9099408  60.2969408  56.9170000  93.7959408  62.6399408  31.5360000
  93.1589408  63.0979408  30.9870000  93.2689408  62.0539408  32.0780000
 110.7379408  63.9019408  50.2470000 110.8629408  63.9519408  49.3000000
 111.6089408  64.0529408  50.6130000 113.9579408  61.6669408  53.3620000
 113.0839408  61.9459408  53.6370000 114.0009408  60.7409408  53.6010000
 119.3579408  66.4659408  51.7420000 118.9689408  66.1709408  50.9190000
 119.0259408  65.8529408  52.3980000 112.3159408  60.6029408  30.0200000
 112.8489408  60.3259408  30.7650000 112.9519408  60.8169408  29.3370000
  94.1209408  73.6749408  73.7610000  94.0209408  74.4239408  74.3480000
  94.6659408  73.0579408  74.2490000 111.1249408  61.1489408  81.7350000
 110.9649408  60.2999408  81.3230000 111.6349408  61.6379408  81.0890000
  96.7109408  78.7099408  81.4700000  96.3839408  79.3649408  82.0880000
  97.6529408  78.8729408  81.4250000 101.8849408  71.9679408  72.0810000
 101.2899408  71.2449408  72.2800000 102.7569408  71.5759408  72.1090000
  95.8789408  66.9689408  68.7010000  95.4139408  66.1719408  68.4480000
  95.9029408  67.4959408  67.9020000 105.1049408  77.8279408  75.6050000
 104.2939408  77.6459408  75.1300000 105.7899408  77.7719408  74.9380000
 108.8559408  78.6129408  69.2840000 108.4689408  78.1719408  70.0410000
 108.1489408  79.1559408  68.9360000  99.0639408  68.6819408  77.8260000
  98.4579408  68.2489408  78.4280000  99.3939408  67.9759408  77.2700000
 107.4669408  75.2269408  77.9080000 107.9479408  75.1439408  78.7320000
 108.1319408  75.1079408  77.2300000 112.0799408  69.5039408  66.3360000
 111.9909408  69.7379408  65.4120000 112.7389408  70.1109408  66.6740000
  95.6149408  73.6859408  68.9500000  95.7649408  73.7169408  69.8950000
  94.7539408  74.0859408  68.8300000 119.3079408  78.9599408  75.2020000
 119.6479408  79.5329408  75.8900000 119.8979408  79.0979408  74.4610000
 102.9309408  85.5519408  74.1980000 103.8639408  85.3599408  74.1090000
 102.5239408  85.1209408  73.4470000 118.0369408  65.5629408  65.5490000
 117.0969408  65.6829408  65.4130000 118.2159408  64.6789408  65.2300000
 108.3629408  81.3589408  60.6810000 107.7089408  82.0489408  60.5670000
 108.2789408  80.8169408  59.8970000 100.6849408  75.9839408  66.6650000
 101.1339408  76.8249408  66.7490000  99.8769408  76.0929408  67.1670000
 118.7999408  69.9389408  75.7730000 117.8609408  69.9999408  75.5990000
 118.8569408  69.5959408  76.6650000 107.9779408  74.4559408  70.6650000
 107.2519408  74.3639408  70.0480000 107.7039408  73.9559408  71.4340000
 106.9329408  82.0279408  73.3670000 107.2779408  82.9039408  73.1980000
 107.6629408  81.4399408  73.1730000  91.5889408  67.8679408  65.1380000
  91.9129408  67.0799408  64.7030000  92.3749408  68.2939408  65.4810000
  94.3779408  61.6949408  76.6380000  93.4469408  61.8319408  76.4640000
  94.7679408  61.5709408  75.7730000 101.0189408  62.1809408  78.1460000
 100.7569408  63.1019408  78.1390000 101.6919408  62.1279408  78.8240000
 105.1549408  60.6799408  68.8720000 104.7649408  61.4279408  68.4200000
 105.0899408  59.9599408  68.2450000 105.4189408  74.0349408  73.0950000
 104.8099408  73.9809408  73.8320000 104.8679408  74.2559408  72.3440000
  96.8749408  86.9259408  69.7580000  97.0919408  87.8089408  70.0560000
  97.0169408  86.9499408  68.8120000 118.5349408  75.5709408  67.6430000
 118.4489408  76.1489408  66.8850000 118.1879408  76.0809408  68.3750000
 114.3849408  69.4109408  77.3650000 114.7209408  68.5179408  77.2950000
 114.2909408  69.5589408  78.3060000  97.7939408  73.7699408  67.0920000
  97.1589408  73.5089408  67.7590000  98.3649408  73.0079408  66.9930000
  99.0859408  62.8069408  72.3010000  99.2659408  63.2629408  71.4790000
  99.7729408  63.1059408  72.8980000 105.8509408  73.9929408  69.0110000
 105.1649408  74.5659408  68.6690000 105.4019408  73.1709408  69.2080000
  97.6489408  77.3009408  72.5020000  97.1329408  77.8939408  73.0490000
  97.6139408  76.4609408  72.9600000 112.4549408  63.6049408  62.6640000
 111.6819408  63.5749408  62.1000000 112.7979408  64.4919408  62.5530000
 111.2289408  80.5009408  74.9470000 110.8759408  81.0379408  75.6570000
 111.9479408  81.0209408  74.5870000  94.6869408  63.6109408  72.3470000
  93.8339408  63.9499408  72.0730000  95.2309408  64.3909408  72.4540000
 101.3659408  80.8169408  72.9800000 101.3449408  81.5859408  72.4090000
 102.2869408  80.5579408  72.9990000 105.5709408  64.5019408  83.2080000
 106.1229408  65.1429408  82.7600000 105.2669408  63.9189408  82.5130000
 104.5329408  79.5259408  67.8070000 104.0209408  78.9609408  68.3850000
 103.9069408  80.1799408  67.4950000 101.9419408  64.9309408  78.4310000
 102.8109408  65.3169408  78.3240000 101.7659408  64.9919408  79.3700000
  99.3909408  65.9979408  73.5600000  98.4679408  65.8209408  73.7410000
  99.5449408  65.6099408  72.6990000  96.4589408  79.0469408  74.2110000
  95.7969408  78.9559408  74.8960000  97.0899408  79.6709408  74.5690000
 102.7269408  64.7419408  73.0350000 103.5559408  64.2759408  72.9230000
 102.3699408  64.4009408  73.8560000 100.9189408  75.5149408  71.9010000
 100.0709408  75.1079408  71.7250000 100.7289408  76.4519408  71.9560000
  96.0069408  60.8799408  64.4630000  96.8559408  60.4709408  64.2940000
  96.1609408  61.8149408  64.3310000 100.9679408  78.3959408  75.9660000
 101.6029408  77.8829408  75.4660000 100.1389408  77.9329408  75.8490000
  99.0729408  70.0809408  69.9790000  99.3089408  70.3209408  70.8750000
  98.1399408  69.8699408  70.0250000 102.1909408  63.0269408  66.6490000
 102.5829408  63.5069408  67.3790000 102.8259408  62.3399408  66.4440000
  92.7639408  70.3209408  75.9390000  92.1979408  70.7929408  75.3280000
  92.1579408  69.8679408  76.5260000  93.7929408  65.9289408  78.5460000
  94.5359408  65.3939408  78.2680000  93.0419408  65.5539408  78.0850000
  97.2649408  65.4869408  70.7700000  96.6499408  66.0649408  70.3180000
  97.6409408  64.9459408  70.0760000  94.4899408  64.3149408  68.6110000
  93.8189408  63.6769408  68.8510000  94.7519408  64.0669408  67.7250000
 108.2059408  71.1969408  71.0920000 108.7899408  71.1579408  70.3350000
 107.3289408  71.0939408  70.7250000  93.9959408  70.0319408  79.2360000
  94.7059408  69.4889408  78.8920000  94.1359408  70.8909408  78.8370000
 105.6389408  66.6119408  68.9870000 105.6199408  66.6119408  69.9440000
 106.5409408  66.8459408  68.7660000 106.1629408  80.3279408  69.8410000
 105.8969408  80.1039408  68.9500000 105.7949408  79.6309408  70.3840000
 108.8369408  79.6889408  73.6890000 109.6529408  79.8079408  74.1740000
 109.0429408  79.9709408  72.7980000  97.3569408  74.9479408  74.1060000
  96.7409408  74.6609408  74.7800000  97.7119408  74.1349408  73.7450000
 112.1589408  71.9809408  68.6940000 112.2029408  72.9319408  68.6020000
 112.8179408  71.6489408  68.0840000  91.5759408  61.8369408  72.3790000
  91.6699408  61.3979408  71.5340000  91.7809408  62.7539408  72.1980000
  99.7979408  73.5629408  80.7020000  99.9119408  72.6129408  80.6900000
 100.2249408  73.8659408  79.9000000 102.6309408  73.1459408  74.3340000
 102.2629408  73.3379408  73.4710000 102.9819408  72.2589408  74.2530000
  94.7069408  75.4199408  83.1280000  94.5639408  75.8999408  82.3120000
  94.9709408  76.0909408  83.7570000  92.9149408  76.4549408  74.3630000
  93.5279408  77.1049408  74.7050000  92.2449408  76.3749408  75.0420000
  99.9729408  61.6209408  69.1660000 100.8859408  61.7839408  68.9290000
 100.0159408  61.2549408  70.0490000 110.6819408  74.5549408  70.8580000
 110.4699408  74.9719408  71.6930000 109.8309408  74.3559408  70.4670000
  95.0659408  72.1979408  78.1450000  95.8319408  71.7159408  77.8330000
  94.6889408  72.5859408  77.3550000  94.4699408  66.9909408  81.0950000
  94.3759408  66.7169408  80.1820000  94.4599408  67.9469408  81.0610000
 106.7989408  68.8369408  81.9130000 106.1259408  68.2629408  81.5470000
 107.3839408  68.2479408  82.3890000 107.3339408  61.3149408  77.3720000
 107.1459408  62.1649408  77.7700000 106.5919408  60.7639408  77.6200000
  94.3569408  84.6489408  73.1330000  95.1819408  85.0809408  72.9100000
  93.8739408  85.2999408  73.6410000  96.0859408  74.8579408  71.4430000
  95.4669408  75.3769408  70.9300000  95.9959408  75.1919408  72.3360000
 103.4409408  76.1729408  68.5040000 103.3789408  75.9409408  67.5780000
 102.7799408  76.8539408  68.6260000  98.5019408  64.1379408  68.6120000
  98.8629408  64.4539408  67.7840000  98.9809408  63.3279408  68.7890000
  99.2219408  89.9579408  79.5540000  99.1209408  89.3189408  78.8490000
  99.7729408  90.6449408  79.1780000  95.8979408  86.1729408  75.7840000
  94.9769408  86.4009408  75.6590000  96.2559408  86.1269408  74.8980000
  94.1719408  68.0399408  66.5580000  93.5999408  68.3309408  67.2680000
  94.3229408  68.8259408  66.0330000 110.9309408  68.1219408  77.8530000
 110.4899408  68.4399408  78.6410000 111.2959408  68.9089408  77.4480000
  93.5469408  89.1949408  74.3880000  93.4529408  88.7309408  73.5560000
  94.0779408  89.9629408  74.1760000  99.7719408  62.8839408  65.6410000
 100.6209408  62.7349408  66.0590000  99.7999408  62.3549408  64.8440000
  99.0259408  76.3989408  75.6100000  98.7289408  76.0099408  76.4320000
  98.4029408  76.0809408  74.9560000 114.9449408  70.7089408  82.4340000
 114.4059408  70.1399408  82.9830000 114.3479408  71.3989408  82.1430000
 102.9919408  66.0789408  80.9050000 103.2669408  66.9929408  80.8340000
 103.4549408  65.7489408  81.6750000 109.7759408  77.0209408  66.7930000
 109.6259408  77.7959408  66.2530000 109.1299408  77.0889408  67.4960000
 114.9269408  75.3199408  69.5870000 115.3159408  74.5869408  70.0650000
 115.3279408  75.2809408  68.7190000  95.7419408  71.5499408  72.2860000
  95.5099408  71.7689408  73.1890000  96.5849408  71.9799408  72.1450000
 119.0709408  62.3679408  73.5800000 119.1899408  62.7229408  74.4610000
 119.9599408  62.2269408  73.2550000 105.3469408  67.8619408  73.5700000
 105.5059408  67.1419408  72.9600000 106.2199408  68.1279408  73.8590000
 103.9419408  87.7469408  71.2050000 103.6119408  87.6369408  72.0970000
 103.2129408  88.1429408  70.7270000  92.4759408  73.4329408  71.5170000
  92.9669408  73.3179408  72.3310000  92.3929408  74.3819408  71.4200000
  94.0809408  70.9719408  70.1910000  93.3579408  71.5829408  70.3280000
  94.6869408  71.1519408  70.9110000  92.4699408  62.2689408  69.4860000
  91.9209408  63.0069408  69.2190000  91.8819408  61.5139408  69.4670000
  93.0199408  76.0899408  71.5960000  92.9749408  76.1599408  72.5500000
  93.1089408  76.9939408  71.2930000 102.5739408  74.1909408  76.7410000
 102.6879408  73.7449408  75.9010000 103.3929408  74.6689408  76.8720000
  98.0449408  78.2839408  77.2700000  97.8129408  77.5769408  77.8720000
  98.2419408  77.8409408  76.4450000  98.0199408  61.0509408  74.0630000
  98.1869408  61.8039408  73.4960000  98.5849408  61.1939408  74.8240000
  92.1229408  82.1309408  77.8600000  92.8419408  81.8089408  77.3180000
  92.3069408  83.0629408  77.9750000 108.9909408  68.3469408  65.9690000
 109.9089408  68.3779408  66.2400000 108.8449408  67.4349408  65.7200000
 103.6209408  75.0579408  71.2560000 102.8359408  75.3699408  71.7060000
 103.5009408  75.3309408  70.3470000  96.7349408  70.4089408  76.9120000
  97.6709408  70.2119408  76.8740000  96.3309408  69.5979408  77.2210000
  99.1019408  79.7299408  82.1000000  99.8669408  79.3959408  81.6300000
  99.3469408  80.6199408  82.3550000 103.4439408  60.5639408  65.1250000
 104.2609408  60.5429408  65.6220000 103.7179408  60.5099408  64.2090000
  98.1309408  77.3219408  69.6840000  98.1119408  78.2399408  69.4110000
  97.9969408  77.3509408  70.6310000 104.0549408  80.7059408  79.8650000
 103.1819408  80.5199408  80.2090000 104.1139408  80.1809408  79.0660000
  98.7819408  74.8269408  70.5120000  97.8989408  74.6719408  70.8490000
  98.7299408  75.6859408  70.0920000 115.7759408  75.5769408  75.5950000
 116.5949408  75.4519408  75.1160000 115.8309408  74.9639408  76.3280000
 104.8019408  75.4929408  76.8610000 104.9129408  76.3009408  76.3600000
 105.6729408  75.3059408  77.2110000 117.4529408  72.4809408  72.6510000
 116.9679408  71.6609408  72.7380000 118.3159408  72.2169408  72.3320000
 109.8039408  70.9529408  68.8190000 110.7069408  71.2619408  68.7410000
 109.2889408  71.5889408  68.3220000 103.6759408  72.0399408  68.3110000
 102.9579408  72.4469408  68.7970000 103.3909408  71.1369408  68.1740000
  94.4319408  59.9699408  69.1520000  94.9539408  60.3289408  69.8690000
  93.7079408  60.5879408  69.0490000 103.4919408  70.2479408  75.4210000
 104.1179408  70.9619408  75.5410000 104.0109408  69.5349408  75.0460000
 118.8019408  66.7519408  75.1170000 118.5949408  66.3399408  74.2790000
 117.9779408  67.1509408  75.3980000  96.3509408  72.5299408  80.8020000
  95.7639408  72.6359408  80.0530000  96.8079408  73.3679408  80.8690000
  92.1939408  62.4329408  75.0200000  91.9859408  62.0149408  74.1840000
  92.7589408  63.1699408  74.7850000 110.3539408  61.1919408  74.3940000
 111.2449408  61.0649408  74.0680000 110.3279408  62.1089408  74.6690000
 101.2079408  73.2309408  69.6310000 101.4929408  73.1859408  70.5430000
 100.4689408  73.8389408  69.6400000  95.9609408  61.2959408  70.8390000
  96.7089408  61.8909408  70.8830000  95.2019408  61.8499408  71.0230000
 104.0369408  69.3019408  70.0320000 103.0859408  69.2279408  69.9500000
 104.3769408  68.5189408  69.5980000 103.8409408  75.9929408  79.9150000
 103.3829408  75.6059408  79.1690000 104.1529408  76.8389408  79.5910000
 107.9259408  73.8949408  74.1400000 106.9729408  73.9149408  74.2200000
 108.2449408  74.1439408  75.0080000 110.7849408  71.9599408  77.6010000
 111.3309408  71.2469408  77.2700000 110.9109408  72.6709408  76.9720000
 106.0959408  70.7469408  69.5820000 105.3069408  70.3579408  69.9590000
 106.3329408  70.1619408  68.8630000 100.6029408  78.1769408  72.3180000
  99.6709408  78.0139408  72.4610000 100.6839408  79.1309408  72.3230000
 106.8019408  80.5669408  75.9690000 107.5409408  79.9729408  75.8380000
 106.7199408  81.0359408  75.1380000  96.3819408  63.8779408  66.2780000
  96.8239408  64.1609408  67.0780000  96.7769408  64.4079408  65.5850000
 107.8219408  70.6709408  84.7140000 107.0509408  70.2079408  84.3860000
 108.5589408  70.2549408  84.2680000 117.1529408  73.0869408  76.5300000
 117.5009408  72.5009408  77.2020000 116.4709408  72.5749408  76.0950000
 118.4819408  70.9349408  69.6410000 118.8959408  71.1749408  70.4700000
 118.9019408  71.4979408  68.9910000 104.8989408  86.5689408  68.8670000
 104.8359408  86.8249408  69.7880000 104.8469408  85.6129408  68.8800000
  96.4319408  69.2409408  69.6680000  95.6539408  69.7959408  69.6110000
  96.1929408  68.4429408  69.1960000 104.5639408  71.3319408  72.5050000
 105.3129408  71.9219408  72.4160000 104.8419408  70.5249408  72.0710000
  95.8949408  79.3489408  70.4970000  95.2319408  79.5939408  71.1420000
  95.4229408  78.8129408  69.8600000 100.5329408  64.8369408  71.0850000
 100.4469408  65.5079408  70.4070000 101.3799408  65.0149408  71.4930000
  98.3729408  83.4639408  73.1860000  99.1639408  83.9339408  72.9220000
  97.6539408  83.9979408  72.8490000  98.5919408  80.0079408  71.6570000
  97.6919408  79.6829408  71.6220000  98.5009408  80.9549408  71.7650000
 107.8569408  65.7969408  66.3200000 108.7739408  65.6119408  66.1180000
 107.3679408  65.4069408  65.5960000 114.8209408  67.4299408  68.6100000
 114.9309408  66.7309408  67.9650000 115.4989408  68.0679408  68.3900000
  99.6499408  71.8419408  67.8760000 100.4039408  72.2779408  68.2730000
  99.2779408  71.3139408  68.5820000 107.8409408  71.3329408  81.0730000
 107.5779408  70.4969408  81.4570000 107.0239408  71.8229408  80.9800000
 106.4069408  63.6289408  79.0480000 107.1099408  64.2789408  79.0450000
 106.1969408  63.5069408  79.9740000 101.6449408  68.1269408  83.6070000
 101.9199408  67.4939408  84.2710000 101.9309408  68.9729408  83.9510000
 108.3389408  68.6359408  77.0160000 108.1949408  69.4509408  77.4970000
 109.2549408  68.4159408  77.1850000 103.4879408  68.3599408  77.7820000
 102.5719408  68.4729408  78.0380000 103.7179408  69.1799408  77.3450000
 117.1329408  73.4899408  66.5760000 116.2129408  73.7239408  66.4540000
 117.5309408  74.2739408  66.9540000  95.3919408  69.8369408  81.5440000
  94.4879408  70.0839408  81.7380000  95.8819408  70.6569408  81.5990000
 105.6989408  73.6459408  81.5090000 104.9289408  74.2119408  81.4530000
 105.7449408  73.3939408  82.4310000  95.3759408  65.8509408  64.5400000
  95.9379408  66.5929408  64.3170000  95.1269408  66.0039408  65.4520000
 111.4999408  80.8909408  81.6630000 111.5299408  81.8449408  81.5890000
 111.2169408  80.5929408  80.7990000 106.1989408  72.7839408  84.3270000
 106.9519408  72.3809408  84.7590000 105.5079408  72.1229408  84.3830000
 110.3079408  72.6819408  81.5200000 109.5659408  72.7069408  82.1230000
 110.0339408  73.2229408  80.7790000 113.5869408  71.2759408  63.3410000
 112.6949408  71.6219408  63.3230000 114.1119408  71.9439408  62.9000000
  97.8799408  86.0279408  83.7110000  98.5289408  86.2299408  83.0370000
  97.0729408  85.8609408  83.2240000 108.4169408  74.7709408  80.7260000
 108.8399408  75.1919408  81.4750000 107.5249408  74.5919408  81.0240000
 104.9759408  75.1649408  83.9550000 105.6309408  75.7189408  83.5300000
 105.4869408  74.4979408  84.4130000 110.1269408  77.4139408  77.2570000
 110.8569408  78.0169408  77.1180000 110.2649408  77.0689408  78.1390000
 107.7229408  69.0149408  74.5310000 108.2079408  69.8399408  74.5330000
 107.7629408  68.7109408  75.4380000 102.1429408  73.0499408  83.4810000
 102.7959408  73.1569408  82.7890000 101.8279408  73.9369408  83.6530000
  99.2999408  64.7489408  76.6790000  98.4779408  64.7659408  76.1890000
  99.0309408  64.7099408  77.5970000 100.2849408  69.8869408  72.5980000
 100.8409408  69.1149408  72.4900000 100.1829408  69.9779408  73.5460000
 118.8309408  67.2719408  62.2880000 118.8699408  66.9779408  63.1980000
 119.5399408  66.7969408  61.8530000 107.8369408  65.8009408  78.3520000
 108.7399408  65.6199408  78.0890000 107.7859408  66.7559408  78.3950000
 102.3099408  77.8379408  78.4750000 101.5999408  77.7869408  77.8350000
 102.9599408  78.4099408  78.0670000 111.5769408  70.0929408  73.5580000
 110.8019408  70.5149408  73.9290000 111.6999408  70.5189408  72.7100000
  95.6639408  68.1749408  78.2520000  96.2629408  67.8789408  78.9380000
  95.1889408  67.3859408  77.9920000  95.9109408  66.2639408  83.1760000
  95.8639408  65.3079408  83.1610000  95.2579408  66.5469408  82.5370000
 110.1159408  63.8369408  75.0270000 110.6079408  64.5009408  74.5440000
 109.2639408  63.8059408  74.5920000  99.1499408  89.6889408  82.5040000
  99.9349408  90.2339408  82.5540000  99.1679408  89.3219408  81.6200000
  99.0229408  70.0999408  83.4030000  98.3649408  70.6929408  83.7660000
  98.5369408  69.3039408  83.1870000  92.6359408  69.1879408  72.6550000
  92.1249408  69.8089408  73.1730000  91.9839408  68.6069408  72.2650000
 100.1199408  61.7629408  63.4120000  99.5699408  61.8339408  62.6310000
 100.9739408  62.0939408  63.1340000 114.7679408  66.0699408  77.1460000
 113.8289408  66.0299408  76.9640000 115.1819408  65.7409408  76.3480000
  95.1569408  71.4689408  75.1180000  94.3929408  71.0489408  75.5120000
  95.9069408  71.0229408  75.5130000 106.3049408  77.8459408  78.6500000
 106.4699408  78.5339408  78.0040000 106.6669408  77.0539408  78.2540000
 101.4229408  61.4139408  82.3640000 101.7979408  61.2949408  83.2370000
 102.1729408  61.6199408  81.8060000  94.3739408  62.0349408  82.5920000
  95.0449408  62.5869408  82.9950000  93.7539408  62.6539408  82.2080000
  97.8019408  76.5439408  67.0640000  97.6149408  75.6139408  67.1890000
  97.8329408  76.9049408  67.9500000 102.7309408  72.2139408  78.9580000
 102.2289408  71.4239408  78.7610000 102.6519408  72.7509408  78.1690000
  97.4109408  68.2469408  82.5390000  97.0039408  67.3889408  82.6570000
  96.8979408  68.6629408  81.8460000 108.8269408  63.5309408  82.3500000
 108.8589408  62.6169408  82.6340000 109.3369408  63.5479408  81.5400000
 104.6579408  61.6439408  84.3280000 105.2989408  61.5509408  85.0330000
 103.8909408  62.0299408  84.7510000  99.2199408  70.8319408  80.8010000
  98.2959408  70.9889408  80.6070000  99.2279408  70.5439408  81.7140000
  98.1889408  77.1529408  83.5900000  99.0689408  77.0679408  83.9560000
  97.9749408  78.0809408  83.6910000 120.1159408  68.1649408  71.4220000
 120.1929408  67.2509408  71.1470000 119.2939408  68.4639408  71.0340000
 111.0649408  69.6399408  62.0140000 111.5329408  69.0169408  62.5690000
 111.5449408  69.6309408  61.1850000  96.9089408  64.5699408  75.4710000
  96.4269408  65.1219408  74.8560000  96.2819408  64.3849408  76.1700000
 106.1519408  76.8349408  66.9130000 105.4469408  76.5409408  66.3350000
 105.7099408  77.0769408  67.7270000 105.4429408  60.1609408  73.2290000
 106.1079408  59.5109408  73.4580000 105.5879408  60.8799408  73.8430000
 114.0269408  79.3799408  81.4100000 114.2849408  78.4959408  81.6720000
 113.1719408  79.5119408  81.8210000 104.3959408  78.1949408  70.7400000
 104.3709408  78.1429408  71.6950000 104.2869408  77.2889408  70.4480000
  94.5679408  72.7609408  83.3450000  94.5269408  73.7069408  83.4870000
  94.8839408  72.6679408  82.4460000 111.5419408  62.2789408  84.3060000
 111.1949408  62.1159408  83.4290000 111.4429408  61.4439408  84.7630000
 104.6329408  83.1429408  70.1660000 104.8209408  83.6079408  69.3500000
 104.7559408  82.2189408  69.9490000 105.3159408  72.0549408  76.3340000
 104.9349408  72.8129408  76.7780000 106.1729408  71.9419408  76.7450000
 112.2929408  77.8109408  83.8080000 112.1829408  77.0259408  84.3450000
 112.7159408  78.4419408  84.3890000  97.2109408  71.8149408  84.3940000
  96.3699408  72.1359408  84.0660000  97.5599408  72.5409408  84.9100000
  90.1669408  68.8079408  80.3710000  89.8829408  68.0049408  80.8070000
  89.9809408  69.5029408  81.0020000 101.3649408  69.9299408  78.7550000
 100.7509408  69.2719408  78.4300000 101.2129408  69.9549408  79.7000000
 100.7769408  69.9669408  75.3550000 101.7099408  70.1599408  75.2610000
 100.7469408  69.1889408  75.9110000 109.8279408  75.7489408  73.0870000
 110.5869408  75.7009408  73.6680000 109.2939408  74.9909408  73.3260000
 118.4329408  61.3169408  77.7720000 118.3759408  60.3929408  78.0160000
 118.3789408  61.7879408  78.6040000 106.9629408  76.6139408  82.6300000
 106.8069408  77.5369408  82.8310000 107.8629408  76.5879408  82.3060000
 116.9299408  71.9079408  61.8610000 116.9209408  72.4829408  62.6270000
 117.6339408  71.2839408  62.0360000  90.8749408  63.4179408  83.9600000
  90.5559408  62.5409408  83.7490000  91.6379408  63.5389408  83.3940000
 103.8929408  79.7199408  77.2500000 103.8199408  80.5249408  76.7370000
 104.7049408  79.3139408  76.9450000 100.5189408  67.1779408  75.9270000
 100.5439408  66.3239408  76.3590000 100.1409408  66.9999408  75.0660000
 105.9109408  87.6449408  80.9300000 105.4609408  86.9469408  80.4540000
 105.2979408  87.8989408  81.6190000 107.6369408  90.0739408  82.6510000
 107.4279408  89.3739408  82.0330000 107.3079408  89.7569408  83.4920000
  97.9469408  67.0969408  79.7360000  97.9239408  66.1409408  79.7090000
  98.7869408  67.3059408  80.1460000 106.8989408  89.9439408  65.6780000
 106.7499408  89.2089408  66.2740000 106.6159408  89.6199408  64.8230000
  91.1219408  66.0539408  69.6410000  90.6489408  66.3209408  68.8530000
  91.9209408  66.5809408  69.6320000 101.1519408  82.9069408  80.7830000
 101.1849408  81.9589408  80.9060000 100.5209408  83.0349408  80.0740000
 101.0869408  85.7069408  67.3250000 100.8939408  86.1889408  68.1280000
 100.7599408  86.2699408  66.6230000  92.6749408  78.7829408  70.9760000
  93.1839408  79.3299408  71.5740000  93.0549408  78.9529408  70.1140000
 103.9669408  75.5319408  65.7910000 104.1179408  74.5939408  65.6770000
 103.3829408  75.7699408  65.0710000  92.1679408  64.6769408  72.0900000
  91.6919408  65.0179408  71.3330000  91.8439408  65.1909408  72.8290000
  99.7219408  88.0699408  68.6160000  99.4219408  88.0619408  67.7080000
  99.1469408  88.6979408  69.0530000 101.7279408  80.3879408  81.2710000
 101.6209408  79.5149408  80.8940000 102.3419408  80.2629408  81.9960000
 118.0529408  85.8899408  72.2050000 118.2489408  86.7309408  72.6180000
 117.0989408  85.8779408  72.1250000  94.9999408  89.5199408  78.2440000
  95.1339408  89.6689408  79.1800000  94.6149408  90.3359408  77.9240000
  93.3269408  84.6049408  79.3680000  94.2059408  84.2289408  79.3230000
  93.4169408  85.4729408  78.9750000 105.7609408  85.8819408  64.7460000
 105.6409408  85.0999408  64.2060000 104.9199408  85.9989408  65.1890000
 104.2179408  80.3289408  73.1910000 104.4609408  81.2159408  72.9250000
 105.0449408  79.9189408  73.4450000 107.6079408  81.4719408  81.4500000
 107.1129408  82.1989408  81.8280000 107.2049408  80.6879408  81.8230000
 102.8429408  84.9729408  81.9030000 102.4879408  84.2539408  81.3800000
 103.3269408  85.5089408  81.2750000  94.6779408  82.4899408  76.5850000
  95.2769408  83.2359408  76.6160000  95.2109408  81.7439408  76.8610000
 107.4849408  87.6719408  67.7400000 106.6389408  87.2889408  67.9700000
 107.8719408  87.0489408  67.1250000  92.3099408  78.7869408  65.5240000
  91.6629408  78.6259408  66.2120000  93.1549408  78.6519408  65.9530000
 104.3059408  88.7819408  67.3720000 104.7559408  88.1469408  67.9280000
 103.9669408  88.2639408  66.6420000 114.3189408  84.7159408  74.1060000
 114.8969408  83.9829408  73.8980000 114.5489408  85.3919408  73.4680000
 106.4369408  79.0669408  81.2430000 106.5039408  78.3559408  80.6060000
 105.6939408  79.5899408  80.9420000 100.3759408  83.4779408  77.1180000
  99.6279408  83.2069408  77.6500000 100.5139408  82.7509408  76.5100000
 105.4449408  85.1009408  74.0140000 106.2459408  85.2109408  73.5020000
 105.0809408  84.2679408  73.7140000  94.2729408  80.1469408  72.5690000
  93.8439408  80.9559408  72.8460000  95.0339408  80.0699408  73.1450000
  94.1789408  77.7809408  68.9290000  94.2309408  78.1619408  68.0530000
  93.5919408  77.0319408  68.8310000 101.1639408  89.3629408  74.0990000
 101.9599408  89.0219408  74.5070000 100.8289408  90.0059408  74.7250000
 100.1639408  74.3359408  77.9330000  99.7059408  73.4989408  77.8530000
 100.9369408  74.2409408  77.3770000  96.9129408  86.0559408  73.0170000
  96.7609408  86.9919408  73.1450000  97.8609408  85.9539408  73.1010000
  99.9689408  85.5049408  71.5150000 100.0609408  86.2039408  72.1630000
  99.5309408  85.9229408  70.7730000 105.8529408  83.8829408  67.9390000
 105.9139408  83.7729408  66.9900000 106.7569408  84.0099408  68.2250000
  97.6779408  75.6369408  78.2270000  97.3809408  75.6059408  79.1360000
  98.4549408  75.0779408  78.2080000  94.3649408  82.5619408  70.9050000
  93.8259408  83.0119408  71.5560000  95.0559408  83.1889408  70.6910000
 101.6299408  83.2589408  71.2250000 101.9139408  83.2529408  70.3110000
 100.9499408  83.9319408  71.2610000  93.3079408  82.3489408  74.1740000
  93.6449408  83.1049408  73.6930000  93.8179408  82.3319408  74.9840000
 110.0859408  63.0319408  61.4180000 110.4329408  62.3479408  60.8450000
 109.2249408  62.7079408  61.6830000 118.1769408  62.4219408  80.1510000
 117.3749408  62.2089408  80.6290000 118.4289408  63.2859408  80.4760000
 109.2209408  88.9019408  69.3070000 108.6819408  89.2899408  69.9960000
 108.5979408  88.6619408  68.6210000  90.7819408  76.6869408  75.9170000
  90.1779408  76.2529408  76.5200000  90.3069408  77.4619408  75.6180000
 100.4329408  61.4439408  75.7220000 100.5989408  61.4719408  76.6650000
 100.7079408  62.3039408  75.4050000  93.3309408  79.3729408  78.2010000
  92.4419408  79.5659408  78.5000000  93.8949408  79.6769408  78.9110000
 116.3379408  68.5209408  74.7070000 115.9319408  69.3879408  74.7270000
 115.5999408  67.9109408  74.7000000 105.4369408  83.2539408  80.0090000
 106.0059408  83.1119408  79.2530000 105.0009408  82.4129408  80.1430000
 102.0659408  88.8869408  69.7040000 101.2279408  88.5389408  69.3980000
 102.5209408  89.1529408  68.9050000 101.2699408  86.0949408  76.5260000
 101.8939408  86.0249408  75.8040000 101.2699408  85.2259408  76.9290000
  93.1739408  60.5829408  64.5740000  94.1289408  60.6499408  64.5680000
  92.8779408  61.4079408  64.9580000 118.8549408  83.9129408  70.4620000
 118.1329408  83.2899408  70.3720000 118.5459408  84.5469408  71.1090000
  99.8059408  75.8759408  81.7940000  98.8959408  76.1509408  81.9020000
  99.7489408  74.9669408  81.5000000  97.9939408  81.3219408  74.6600000
  98.8919408  81.3319408  74.9910000  97.9779408  82.0019408  73.9870000
 115.4639408  85.1709408  68.5830000 114.5769408  85.4189408  68.3240000
 115.9009408  84.9499408  67.7600000 114.4759408  80.8279408  79.0240000
 115.3199408  81.0919408  78.6570000 114.7019408  80.2359408  79.7420000
 102.9509408  61.3049408  72.5350000 103.5739408  60.6049408  72.7320000
 102.1069408  60.9639408  72.8300000 119.8429408  86.8959408  68.9490000
 119.2369408  86.1979408  68.6960000 120.4319408  86.4839408  69.5810000
 103.2739408  86.0209408  65.5640000 103.0779408  85.8549408  66.4860000
 102.5129408  85.6839408  65.0920000 103.9679408  83.1959408  72.7510000
 103.0609408  83.1179408  72.4530000 104.4749408  83.3119408  71.9480000
  97.9659408  83.2009408  84.6000000  98.6309408  82.7009408  84.1270000
  97.9549408  84.0549408  84.1660000 118.8189408  88.9629408  79.5480000
 119.3499408  88.7979408  80.3270000 117.9169408  88.8389408  79.8420000
  97.1999408  62.1849408  79.7970000  97.7519408  61.4189408  79.6400000
  96.4489408  61.8439408  80.2840000 101.4439408  75.8639408  83.9440000
 102.0879408  76.3889408  83.4680000 100.7859408  75.6379408  83.2870000
 104.5009408  72.8519408  65.8720000 104.3729408  72.6739408  66.8040000
 103.6179408  72.8409408  65.5020000 100.8959408  79.7499408  69.9370000
 100.1039408  79.8069408  70.4710000 101.6099408  79.9329408  70.5480000
 109.0259408  74.6979408  65.6060000 109.1789408  75.5409408  66.0320000
 108.8219408  74.0999408  66.3250000  96.7689408  88.4729408  74.2330000
  97.3599408  89.2059408  74.4070000  95.9639408  88.6979408  74.6990000
 117.3529408  60.3099408  72.8330000 117.5099408  59.6729408  73.5300000
 117.9369408  61.0399408  73.0390000 102.1129408  78.3489408  67.7370000
 101.7449408  78.5769408  68.5910000 101.5649408  78.8179408  67.1070000
 114.6629408  79.5749408  72.4850000 114.9049408  78.8659408  73.0800000
 114.1909408  79.1409408  71.7740000  91.4539408  89.7109408  75.8930000
  91.4329408  90.6619408  76.0040000  92.2849408  89.5399408  75.4500000
  96.8329408  80.5419408  77.8900000  97.4509408  79.8449408  77.6710000
  96.2749408  80.1639408  78.5700000 115.2199408  74.8659408  61.3530000
 115.3179408  74.0859408  60.8060000 114.4369408  75.3009408  61.0120000
  96.1329408  83.5059408  80.1000000  96.3269408  83.2889408  79.1880000
  96.9599408  83.8419408  80.4480000 100.2109408  88.4339408  71.9620000
 101.0079408  88.2959408  71.4500000 100.5229408  88.6039408  72.8510000
 115.9239408  82.7609408  73.2040000 115.7279408  82.7439408  72.2670000
 116.0819408  81.8459408  73.4340000 109.3099408  86.6769408  74.0320000
 109.6109408  86.8749408  74.9190000 109.3619408  85.7229408  73.9680000
 119.6089408  87.8679408  75.3230000 120.1049408  87.1339408  74.9590000
 120.2649408  88.5469408  75.4810000 112.3659408  74.6299408  68.6880000
 111.7399408  74.6659408  69.4110000 113.1379408  75.0919408  69.0160000
  91.5119408  79.0599408  73.6060000  90.8219408  79.4449408  73.0660000
  92.0049408  78.5029408  73.0030000  93.9449408  86.8669408  78.1460000
  93.7629408  86.8199408  77.2080000  94.4529408  87.6719408  78.2510000
 103.2799408  82.0519408  75.6120000 102.3279408  81.9589408  75.6370000
 103.5199408  81.8259408  74.7140000 108.2589408  72.5979408  67.4360000
 107.7069408  71.9699408  66.9700000 107.6589408  73.0499408  68.0290000
  90.1369408  63.5589408  65.8370000  89.9919408  62.6449408  65.5950000
  90.0729408  63.5669408  66.7920000 116.3759408  83.1479408  82.1470000
 115.9069408  83.8409408  81.6830000 117.2419408  83.1299408  81.7400000
 102.6159408  82.0489408  84.5270000 102.7129408  81.7699408  85.4380000
 103.1399408  81.4229408  84.0270000  99.2759408  86.4629408  74.7030000
  99.7309408  86.2569408  75.5190000  99.1089408  87.4049408  74.7520000
 113.3719408  89.3539408  76.9710000 113.3079408  88.3989408  76.9860000
 112.9949408  89.6059408  76.1290000 106.2559408  83.4489408  82.4580000
 105.9049408  83.5529408  81.5740000 105.4959408  83.5559408  83.0320000
  96.9949408  75.9949408  80.7340000  96.4209408  75.7369408  81.4560000
  96.9939408  76.9519408  80.7580000 106.4109408  87.9309408  76.0400000
 106.7929408  88.4529408  76.7440000 106.9819408  88.0879408  75.2870000
 104.1419408  84.1589408  84.0840000 103.6309408  83.3779408  84.2940000
 103.5819408  84.6599408  83.4910000 103.5379408  76.9969408  82.3460000
 104.1009408  76.3869408  82.8230000 103.4289408  76.5979408  81.4830000
 103.4829408  79.4799408  83.5240000 103.6019408  78.6709408  83.0260000
 104.1959408  79.4769408  84.1620000 104.6979408  85.7839408  79.6430000
 104.8279408  85.7939408  78.6940000 104.6369408  84.8559408  79.8670000
  95.6269408  85.5319408  82.0670000  96.1349408  85.9269408  81.3580000
  95.2669408  84.7309408  81.6870000 114.5209408  77.0009408  82.3890000
 115.1209408  76.3069408  82.6620000 113.6929408  76.7869408  82.8180000
 100.6369408  81.0749408  75.7480000 101.0509408  80.3259408  76.1760000
 100.8889408  80.9959408  74.8280000 104.6019408  88.8039408  83.5100000
 105.1489408  88.3629408  84.1610000 104.6489408  89.7299408  83.7450000
 107.2359408  85.8399408  84.2300000 107.9919408  85.7569408  83.6490000
 106.6439408  85.1399408  83.9550000 106.3829408  85.0279408  76.5230000
 105.9809408  84.9789408  75.6560000 106.6939408  85.9299408  76.5930000
  89.8979408  85.6919408  82.9550000  89.7849408  84.8959408  83.4740000
  90.8379408  85.7319408  82.7780000 116.7709408  63.6649408  82.7270000
 116.7729408  62.8369408  83.2070000 117.3549408  64.2339408  83.2270000
  99.9189408  63.5539408  81.8240000  99.1149408  63.4609408  82.3350000
 100.5089408  62.8899408  82.1800000  98.4839408  72.6569408  72.7750000
  98.7579408  73.2109408  72.0450000  99.2489408  72.1129408  72.9640000
  91.2759408  80.9209408  82.3260000  91.5259408  80.2529408  81.6880000
  91.9619408  81.5849408  82.2600000  97.4129408  86.2019408  80.0570000
  97.4249408  86.6489408  79.2110000  98.2419408  86.4469408  80.4690000
 111.6459408  85.8579408  79.2480000 111.8839408  85.4889408  78.3980000
 111.1379408  85.1669408  79.6750000 116.5009408  83.4099408  63.8900000
 117.2679408  83.2959408  63.3290000 116.1529408  84.2679408  63.6490000
 102.1069408  88.3369408  82.1520000 102.8629408  88.3479408  82.7390000
 101.9139408  89.2609408  81.9920000  96.9049408  89.6589408  84.4020000
  97.4049408  89.1249408  85.0190000  97.5369408  89.8999408  83.7250000
 105.8789408  62.1039408  81.6990000 105.5149408  61.9559408  82.5720000
 106.7829408  61.7959408  81.7610000  98.8949408  81.6709408  79.8570000
  98.2309408  81.5909408  79.1720000  98.9859408  80.7849408  80.2080000
 109.3409408  79.3989408  80.3370000 109.0289408  79.1119408  79.4790000
 108.5439408  79.5879408  80.8320000 103.0649408  61.5539408  80.0000000
 103.9649408  61.6039408  80.3230000 102.9399408  60.6309408  79.7800000
 100.1359408  82.0139408  83.1660000 100.2959408  82.4989408  82.3560000
 100.9959408  81.9489408  83.5810000  97.1399408  87.5469408  77.6840000
  96.8289408  87.2759408  76.8200000  96.5409408  88.2459408  77.9460000
 105.7979408  88.7229408  63.2530000 105.6619408  87.7969408  63.0530000
 105.1299408  89.1799408  62.7420000  98.0329408  89.1679408  70.5370000
  98.6119408  88.8459408  71.2270000  97.5109408  89.8489408  70.9610000
 102.8329408  76.8609408  73.8650000 102.4649408  75.9809408  73.9370000
 102.1939408  77.3459408  73.3420000  95.5019408  60.1759408  80.8970000
  95.1519408  60.8029408  81.5300000  95.3639408  59.3209408  81.3060000
 114.9609408  75.1169408  66.4150000 114.0719408  75.3439408  66.1410000
 115.4919408  75.8699408  66.1570000 109.3769408  67.5459408  72.7920000
 109.5639408  67.9789408  71.9590000 108.9799408  68.2279408  73.3340000
 119.9389408  72.9329408  80.1570000 119.2409408  73.5489408  79.9330000
 119.5489408  72.0699408  80.0180000 113.4369408  68.0999408  74.6000000
 113.0629408  68.4679408  73.7990000 113.0709408  67.2169408  74.6520000
 117.4789408  63.9939408  70.6530000 117.3369408  64.2939408  69.7560000
 117.7139408  63.0699408  70.5640000 113.8419408  67.9109408  71.1330000
 113.2649408  68.4849408  70.6300000 114.5029408  67.6239408  70.5030000
 114.1399408  61.3499408  70.9420000 113.2239408  61.4689408  71.1920000
 114.1099408  60.7419408  70.2040000  90.0609408  66.7279408  77.5830000
  90.7789408  67.3319408  77.7720000  89.7179408  67.0209408  76.7390000
 108.6229408  64.8899408  72.5080000 109.1929408  64.4829408  71.8550000
 108.9969408  65.7609408  72.6440000 118.2209408  83.3229408  74.8680000
 117.5639408  83.4529408  74.1850000 119.0359408  83.1649408  74.3900000
 117.7609408  62.7849408  63.9490000 118.2159408  62.0179408  63.6010000
 117.0409408  62.9349408  63.3370000 115.9399408  65.4359408  74.7680000
 116.1589408  65.8389408  73.9280000 115.7629408  64.5199408  74.5560000
 115.4509408  66.9699408  65.4990000 114.8859408  66.2069408  65.3780000
 115.7639408  67.1789408  64.6180000  90.4629408  82.8909408  73.2580000
  90.2129408  81.9829408  73.0880000  91.3599408  82.8359408  73.5870000
 104.7979408  71.2589408  80.4950000 104.1209408  71.7319408  80.0110000
 105.3779408  71.9449408  80.8280000 108.4659408  83.8039408  69.1880000
 108.8379408  84.6159408  68.8460000 108.9149408  83.1109408  68.7040000
  95.6159408  63.9159408  77.9620000  96.1299408  63.4149408  78.5940000
  95.1099408  63.2559408  77.4870000 115.2969408  65.6169408  79.7390000
 116.1719408  65.2819408  79.5430000 114.9219408  65.8239408  78.8830000
 100.5079408  67.1349408  80.9140000 101.3479408  66.7929408  80.6060000
 100.6289408  67.2549408  81.8560000  95.4309408  68.9249408  73.3460000
  94.5449408  68.8439408  73.6980000  95.4069408  69.7229408  72.8170000
 119.5329408  60.6999408  63.3760000 120.1959408  60.7629408  62.6890000
 119.1429408  59.8339408  63.2540000 109.1209408  71.3209408  73.8360000
 108.7309408  71.3989408  72.9650000 108.7629408  72.0599408  74.3270000
 113.4509408  76.6139408  77.9200000 113.0099408  77.2459408  77.3520000
 112.8429408  76.4799408  78.6470000  90.5589408  63.4369408  62.1060000
  90.9039408  63.9419408  61.3700000  89.6199408  63.3699408  61.9320000
 115.4529408  83.0009408  66.3470000 116.1639408  82.5919408  66.8410000
 115.8259408  83.1649408  65.4810000 109.8289408  72.1619408  64.8400000
 110.2879408  72.3219408  65.6640000 109.5549408  73.0299408  64.5450000
 115.5609408  71.1319408  75.4750000 115.1189408  70.5969408  76.1340000
 114.8589408  71.6419408  75.0700000 116.7429408  63.6139408  77.8620000
 116.4659408  64.0829408  77.0750000 116.0469408  62.9769408  78.0200000
 111.6259408  79.4869408  61.2030000 112.4039408  79.0829408  61.5860000
 111.3859408  80.1789408  61.8190000 119.2179408  83.7659408  65.8380000
 119.3659408  84.3189408  65.0710000 119.4309408  82.8809408  65.5410000
 111.2669408  60.7559408  68.5830000 111.3999408  61.0999408  69.4660000
 110.5919408  60.0849408  68.6870000 117.0209408  60.6149408  83.3560000
 116.1119408  60.3729408  83.1770000 117.4589408  59.7839408  83.5400000
 117.0549408  80.3509408  73.5330000 116.2059408  80.0659408  73.1960000
 117.4329408  79.5649408  73.9270000 113.3629408  65.0449408  71.8150000
 113.7649408  65.8809408  71.5770000 114.1039408  64.4649408  71.9930000
 114.9759408  61.0289408  80.1130000 114.6729408  61.3969408  79.2830000
 114.4759408  61.4979408  80.7810000 112.5319408  83.9129408  76.2690000
 113.3199408  83.8259408  76.8050000 112.8589408  84.0669408  75.3830000
 116.3219408  67.4929408  83.9420000 116.3019408  66.7529408  84.5480000
 117.1049408  67.9849408  84.1900000  90.1739408  71.8329408  71.6060000
  90.4409408  71.6049408  72.4960000  90.8999408  72.3529408  71.2630000
 115.7369408  79.1459408  68.1800000 114.8499408  79.1279408  68.5390000
 116.1869408  78.4239408  68.6170000 106.6539408  69.5689408  67.1000000
 106.2859408  69.1019408  66.3490000 107.5579408  69.2609408  67.1550000
 108.3429408  85.7469408  66.0430000 108.8659408  84.9999408  65.7510000
 107.5969408  85.7659408  65.4440000 113.2419408  83.1659408  70.4920000
 112.9709408  83.7249408  69.7630000 112.5509408  82.5069408  70.5570000
 115.7379408  86.5139408  76.0000000 115.5399408  85.6189408  75.7260000
 114.8859408  86.8929408  76.2160000  90.0309408  66.3349408  67.2890000
  89.4529408  65.8939408  66.6650000  90.7089408  66.7369408  66.7450000
  95.4109408  61.6389408  74.1010000  96.3529408  61.5459408  73.9540000
  95.1199408  62.2449408  73.4200000 114.4599408  62.0869408  77.5660000
 114.6979408  62.1839408  76.6440000 113.9199408  61.2969408  77.5930000
  98.5499408  64.3989408  79.4280000  99.1569408  64.0959408  80.1040000
  97.8149408  63.7869408  79.4750000 111.2339408  61.7299408  71.0500000
 111.0569408  61.7479408  71.9900000 111.0979408  62.6329408  70.7630000
 112.1169408  66.2239408  76.4610000 111.5759408  66.8179408  76.9810000
 111.6809408  66.1839408  75.6100000 117.9949408  61.5439408  69.2960000
 117.6689408  60.7739408  69.7610000 117.5859408  61.4939408  68.4320000
  94.1849408  79.2609408  75.5620000  93.2749408  79.4589408  75.3410000
  94.2369408  79.3929408  76.5080000 111.5719408  76.0879408  79.4610000
 111.2589408  76.5549408  80.2350000 112.0279408  75.3219408  79.8100000
 114.5889408  72.8039408  78.0590000 115.3309408  72.2919408  77.7360000
 114.9889408  73.5189408  78.5550000  92.6959408  64.0899408  81.8710000
  92.3059408  63.5869408  81.1560000  92.9999408  64.8979408  81.4560000
 119.8669408  82.4849408  83.7190000 120.5199408  82.0109408  83.2050000
 119.1229408  82.5889408  83.1250000 112.9719408  89.7709408  66.6800000
 112.3179408  90.1079408  67.2920000 113.6439408  89.3789408  67.2390000
 120.0319408  69.3559408  67.3470000 119.0959408  69.2539408  67.5190000
 120.1719408  68.9109408  66.5120000 102.1399408  67.4559408  72.2220000
 103.0799408  67.4309408  72.0430000 101.9669408  66.6499408  72.7080000
 112.2569408  72.3619408  71.4830000 111.7519408  73.1539408  71.2990000
 112.2079408  71.8529408  70.6740000 117.9939408  68.9349408  78.7130000
 118.8849408  68.7869408  79.0320000 117.4419408  68.4079408  79.2910000
  92.6369408  68.9269408  68.6340000  93.0599408  69.1289408  69.4690000
  91.7709408  69.3279408  68.7010000  91.9669408  68.2519408  78.4270000
  92.8179408  68.6559408  78.5950000  91.4089408  68.5619408  79.1400000
 117.5039408  65.9579408  72.6760000 117.6349408  65.1329408  72.2080000
 117.4329408  66.6169408  71.9850000  96.0659408  63.5049408  63.3350000
  95.7129408  64.3689408  63.5490000  95.3759408  63.0859408  62.8200000
 110.1629408  63.2489408  67.1740000 110.7889408  62.6829408  67.6270000
 109.4289408  63.3299408  67.7820000 106.8479408  89.6619408  70.6200000
 106.3209408  89.0759408  71.1630000 106.2789408  89.8849408  69.8840000
 112.0509408  87.8479408  81.3780000 112.2919408  87.3129408  80.6220000
 112.4079408  88.7149408  81.1820000 116.0049408  88.4509408  80.5770000
 115.3879408  87.8689408  80.1320000 115.6789408  89.3319408  80.3920000
 112.1649408  67.7679408  68.6350000 113.0789408  67.4839408  68.6030000
 112.1279408  68.5239408  68.0490000 114.3869408  70.8979408  67.2380000
 114.6949408  71.3449408  68.0260000 115.0989408  71.0059408  66.6070000
 110.4669408  87.5979408  76.5020000 110.0149408  88.4079408  76.7400000
 109.9129408  86.9009408  76.8520000 107.1799408  84.4859408  71.5940000
 107.1339408  84.0919408  70.7230000 107.8769408  85.1389408  71.5260000
 117.1109408  67.9229408  70.7590000 116.6699408  68.6599408  71.1820000
 117.2859408  68.2279408  69.8680000 114.4309408  68.2329408  60.1660000
 114.9999408  68.8329408  59.6840000 114.9499408  67.9689408  60.9260000
 117.6649408  77.8339408  80.4340000 117.0099408  77.9209408  81.1270000
 117.7929408  78.7259408  80.1110000 110.4459408  65.7249408  65.9510000
 110.6899408  64.9389408  66.4390000 111.2809408  66.0999408  65.6680000
  94.0989408  77.2339408  80.9040000  93.5579408  77.6299408  80.2210000
  94.7849408  77.8809408  81.0720000 113.0409408  85.6989408  67.7480000
 112.2169408  86.1149408  67.4950000 113.0589408  84.8799408  67.2530000
 105.0709408  63.1099408  71.9730000 105.9309408  62.7019408  71.8700000
 104.5769408  62.4959408  72.5170000  91.2549408  66.8109408  74.1630000
  90.3669408  66.7379408  74.5100000  91.5479408  67.6809408  74.4330000
  91.2039408  78.3319408  68.1590000  91.7869408  78.4599408  68.9080000
  90.4139408  77.9419408  68.5330000 100.8509408  78.0429408  80.5640000
 101.5169408  77.8769408  79.8970000 100.6929408  77.1879408  80.9640000
 115.3289408  73.5029408  71.5810000 115.0329408  74.2309408  72.1270000
 116.1189408  73.1829408  72.0170000 117.1119408  87.8559408  74.3000000
 116.6299408  87.3489408  74.9530000 118.0099408  87.8809408  74.6300000
 114.7879408  62.1149408  65.8990000 114.1839408  61.3719408  65.9120000
 115.6579408  61.7159408  65.9040000 109.4179408  75.1679408  76.0930000
 110.2329408  74.6729408  76.0060000 109.6999408  76.0539408  76.3210000
 117.7659408  73.5989408  63.8470000 117.7389408  73.8419408  64.7720000
 117.9009408  74.4269408  63.3850000  95.1689408  74.5189408  76.3780000
  95.8409408  74.4369408  77.0540000  94.4199408  74.9079408  76.8290000
 114.5049408  63.7859408  68.3370000 114.6659408  63.1259408  67.6630000
 115.3689408  63.9629408  68.7110000 117.8919408  75.9599408  61.8140000
 117.0629408  75.4949408  61.6950000 118.2699408  76.0039408  60.9360000
 111.4209408  65.9589408  73.7260000 110.7449408  66.4539408  73.2630000
 112.0389408  65.6999408  73.0420000 107.9489408  77.1749408  71.2960000
 107.9059408  76.2389408  71.0990000 108.8179408  77.2979408  71.6800000
 115.4809408  71.9639408  69.4060000 115.1199408  72.5119408  70.1030000
 116.2799408  71.5939408  69.7810000 117.2379408  64.9699408  68.0610000
 117.3909408  65.8909408  68.2740000 117.5609408  64.8749408  67.1650000
 112.8489408  73.5719408  79.9600000 113.5609408  73.2709408  79.3950000
 112.1069408  73.0129408  79.7290000 113.2589408  60.4689408  74.2250000
 113.7039408  59.7619408  73.7580000 113.9489408  61.1049408  74.4120000
 106.2619408  65.6629408  71.8050000 107.1559408  65.3529408  71.9450000
 105.7269408  64.8699408  71.8260000 115.2609408  62.5219408  75.1500000
 116.1599408  62.1979408  75.2140000 115.1129408  62.6349408  74.2110000
 116.0369408  69.7699408  72.4210000 116.3529408  69.1019408  73.0300000
 115.0999408  69.8379408  72.6050000 113.0209408  68.4339408  63.5050000
 113.2149408  69.3699408  63.4500000 113.4379408  68.1499408  64.3190000
 108.3969408  61.7669408  64.5070000 108.1719408  61.0319408  65.0770000
 109.3529408  61.8069408  64.5340000 119.4079408  80.4649408  72.4830000
 118.5159408  80.4729408  72.8300000 119.2959408  80.4509408  71.5330000
 109.9099408  68.3669408  70.0660000 109.9099408  69.2509408  69.6990000
 110.6139408  67.9149408  69.6030000 112.3429408  77.8229408  73.7280000
 112.4789408  78.5569408  74.3260000 111.4959408  77.9999408  73.3180000
 108.5539408  78.9259408  84.6820000 108.7939408  78.2999408  85.3660000
 109.3529408  79.4279408  84.5250000 108.5449408  66.2349408  68.9460000
 108.6869408  66.3049408  68.0020000 108.8589408  67.0669408  69.2990000
 107.5829408  62.1169408  71.6990000 107.5359408  61.9249408  72.6360000
 107.4419408  61.2719408  71.2740000 113.0879408  66.0449408  62.2860000
 113.1179408  66.9629408  62.5550000 112.5769408  66.0479408  61.4770000
 119.4029408  81.3029408  76.8030000 119.1189408  82.1149408  76.3830000
 120.2919408  81.4879408  77.1050000 119.9999408  63.3119408  68.7350000
 119.2879408  62.6869408  68.8720000 119.6239408  64.1599408  68.9690000
  97.9229408  60.9289408  67.0610000  98.3859408  61.4039408  67.7510000
  97.6119408  61.6119408  66.4670000 116.0629408  66.2019408  62.8730000
 116.7759408  66.4759408  62.2960000 115.4759408  65.7009408  62.3070000
 115.4119408  80.8149408  61.5320000 115.4999408  80.9999408  60.5970000
 116.2239408  80.3649408  61.7650000 118.3659408  65.4669408  79.3010000
 118.8039408  65.9929408  78.6320000 118.0599408  64.6899408  78.8330000
 110.9419408  64.3839408  77.7550000 110.5819408  63.9059408  77.0080000
 111.5239408  65.0359408  77.3640000 119.4049408  69.7769408  61.2160000
 119.7829408  69.6169408  60.3520000 118.8879408  68.9919408  61.4010000
 111.4199408  73.2069408  84.2540000 111.6209408  72.3409408  84.6100000
 111.2789408  73.0559408  83.3200000 119.1759408  70.3779408  82.4850000
 118.2839408  70.5879408  82.2080000 119.0939408  70.1619408  83.4140000
 117.5159408  71.6489408  78.8270000 117.5849408  70.6959408  78.7670000
 117.6049408  71.8379408  79.7610000 118.1189408  73.0759408  83.9840000
 118.7619408  72.6759408  84.5710000 117.4529408  73.4369408  84.5690000
 111.7639408  73.3609408  62.3840000 111.7739408  73.7069408  61.4920000
 110.9559408  72.8499408  62.4340000  92.9169408  70.2559408  82.9200000
  92.3259408  70.8239408  82.4250000  93.4999408  70.8599408  83.3800000
 111.1939408  64.9999408  84.4080000 110.3499408  65.2639408  84.7730000
 111.2559408  64.0639408  84.5980000 118.7599408  88.1839408  63.0480000
 118.8759408  87.2849408  63.3560000 119.4779408  88.3219408  62.4310000
  92.6489408  67.0719408  83.3300000  92.9159408  67.8839408  82.8980000
  92.1039408  66.6239408  82.6820000 117.0089408  67.7539408  80.9100000
 117.1639408  67.5669408  81.8360000 116.1749408  67.3249408  80.7160000
 109.5569408  79.2589408  64.7920000 109.8279408  78.5009408  64.2750000
 109.5719408  79.9889408  64.1730000 116.9399408  70.5709408  65.5480000
 117.2969408  71.4359408  65.7460000 117.5429408  70.2049408  64.9000000
 112.1869408  67.3489408  83.2340000 112.6329408  67.2299408  82.3960000
 111.9849408  66.4599408  83.5270000 113.0549408  86.8219408  75.9560000
 112.1179408  86.8199408  76.1500000 113.1779408  86.0819408  75.3610000
 116.0829408  74.9759408  82.9120000 116.8299408  74.5689408  82.4730000
 116.1679408  74.7089408  83.8270000  91.7139408  64.7479408  64.2270000
  91.3929408  64.3309408  63.4270000  91.0859408  64.4889408  64.9010000
 114.2559408  83.5429408  78.3680000 114.2759408  82.7569408  78.9150000
 115.1489408  83.6239408  78.0320000 114.1759408  78.5089408  61.7660000
 114.5339408  79.3739408  61.5650000 114.8279408  78.1069408  62.3410000
 115.2449408  75.1359408  79.2390000 114.6809408  75.3399408  79.9860000
 115.0279408  75.8009408  78.5860000 117.8889408  62.9389408  60.7890000
 117.1389408  62.3659408  60.9500000 117.5709408  63.8159408  61.0000000
 107.5889408  65.9449408  81.8650000 107.9269408  65.0509408  81.9150000
 108.2399408  66.4199408  81.3480000 110.0679408  66.6019408  80.6770000
 110.4109408  65.7399408  80.4420000 110.8469408  67.1369408  80.8290000
 119.4139408  63.1659408  76.0720000 119.2369408  62.3849408  76.5970000
 118.9069408  63.8589408  76.4960000 107.8799408  67.6249408  84.1220000
 107.7579408  66.6759408  84.0920000 107.0159408  67.9709408  84.3480000
 114.0009408  64.7069408  65.0710000 113.8849408  64.5229408  64.1390000
 114.2479408  63.8649408  65.4530000 118.6979408  64.9809408  83.9730000
 119.2289408  65.6649408  84.3820000 119.2709408  64.2149408  83.9480000
  99.8899408  71.8059408  77.1790000 100.2009408  71.2239408  77.8720000
 100.1229408  71.3559408  76.3660000  92.2539408  75.9619408  84.7120000
  91.4929408  75.4689408  84.4070000  93.0069408  75.4519408  84.4130000
 110.0029408  69.2039408  83.4090000 110.8009408  68.6759408  83.4560000
 109.3039408  68.6049408  83.6730000 113.6059408  72.7209408  74.1930000
 113.3069408  72.6279408  73.2890000 113.8659408  73.6389408  74.2670000
 113.0969408  67.0939408  80.7320000 113.5719408  67.7899408  80.2780000
 113.5829408  66.2959408  80.5220000 111.2829408  64.2129408  70.2370000
 112.1709408  64.4309408  70.5200000 110.9569408  65.0169408  69.8310000
  95.2779408  71.5559408  67.5480000  94.8449408  70.9229408  68.1220000
  95.5749408  72.2489408  68.1370000  96.0519408  66.0389408  72.9900000
  96.7619408  65.9259408  72.3580000  95.9799408  66.9859408  73.1040000
 116.9689408  86.1229408  82.1750000 117.8909408  86.2139408  82.4190000
 116.8059408  86.8519408  81.5770000  90.5089408  69.7659408  73.8980000
  89.8269408  69.7809408  74.5700000  90.2249408  69.0889408  73.2830000
 112.0069408  73.9469408  76.1180000 112.6479408  73.3789408  75.6900000
 112.4899408  74.3509408  76.8390000  93.1369408  75.9089408  77.4420000
  93.2879408  76.7359408  77.8990000  92.3239408  76.0479408  76.9560000
 114.1139408  63.7159408  81.1230000 114.5879408  64.4759408  80.7840000
 114.5419408  63.5189408  81.9560000 103.7419408  66.4529408  75.6390000
 104.2449408  66.8479408  74.9270000 103.4279408  67.1979408  76.1520000
  93.9139408  74.3159408  80.0960000  93.3239408  75.0459408  80.2810000
  93.8699408  74.2069408  79.1460000 109.3529408  69.0949408  79.9650000
 108.9699408  69.8979408  80.3180000 109.1119408  68.4159408  80.5960000
 107.2159408  62.2419408  74.2630000 107.4569408  61.6839408  75.0030000
 106.9959408  63.0849408  74.6600000  96.1759408  63.6459408  83.8610000
  97.0319408  63.4339408  84.2340000  95.6269408  63.8449408  84.6190000
  90.6509408  74.1239408  83.5250000  89.7119408  73.9479408  83.5810000
  90.9809408  73.4709408  82.9080000  92.0539408  72.5049408  81.6720000
  92.7779408  73.0489408  81.3630000  91.3189408  72.7389408  81.1060000
 117.4739408  68.2959408  67.3770000 117.0789408  69.0559408  66.9490000
 117.4529408  67.6089408  66.7110000  93.5789408  65.2939408  74.7230000
  94.2869408  65.7469408  74.2640000  92.8469408  65.9109408  74.7040000
 104.3679408  68.5949408  80.4910000 104.4269408  69.5469408  80.5680000
 104.3979408  68.4279408  79.5490000  92.4339408  89.4479408  81.3220000
  91.7669408  88.7629408  81.3040000  92.1439408  90.0829408  80.6670000
 109.6399408  77.0629408  81.6660000 110.2749408  77.2579408  82.3550000
 109.4069408  77.9179408  81.3040000 117.1349408  72.3819408  81.4320000
 116.3539408  71.8949408  81.6950000 117.7049408  72.3559408  82.2000000
  91.7099408  64.5589408  77.3620000  91.2679408  64.1129408  76.6390000
  91.0809408  65.2169408  77.6580000 112.3099408  70.3559408  81.7640000
 111.7209408  71.1059408  81.6740000 111.7629408  69.6659408  82.1410000
 118.6129408  80.5529408  80.3810000 119.2029408  80.8629408  81.0670000
 118.5069408  81.3039408  79.7970000 114.3199408  75.3179408  73.4330000
 113.7379408  76.0469408  73.2200000 114.8819408  75.6559408  74.1310000
 112.5469408  75.5769408  64.2880000 111.8889408  76.0879408  63.8160000
 112.4899408  74.7009408  63.9070000 109.5539408  60.0589408  77.2370000
 109.8519408  60.3489408  76.3750000 108.6799408  60.4369408  77.3290000
 114.5779408  86.1839408  79.7680000 115.3119408  85.7339408  79.3490000
 113.8019408  85.8429408  79.3220000 109.7779408  83.9979408  73.5600000
 110.2779408  84.1409408  72.7560000 110.3799408  83.5269408  74.1360000
 106.2369408  62.5929408  67.0360000 106.4979408  61.7169408  66.7530000
 107.0569408  63.0199408  67.2820000 107.8549408  63.6489408  68.8230000
 108.0219408  64.5789408  68.9790000 107.6949408  63.2839408  69.6930000
 110.3289408  84.1079408  62.8240000 109.6049408  84.5969408  62.4350000
 110.2499408  84.2699408  63.7640000 111.6989408  60.0119408  79.4060000
 112.3109408  59.7979408  78.7010000 110.9559408  60.4209408  78.9620000
 117.1489408  81.4149408  68.1260000 117.0169408  81.9989408  68.8730000
 116.3659408  80.8649408  68.1090000 111.1139408  62.1109408  64.7390000
 111.1109408  62.6599408  65.5240000 111.5609408  62.6399408  64.0780000
 112.0079408  70.1399408  76.2200000 111.9829408  70.3189408  75.2790000
 112.8879408  69.7949408  76.3750000 106.6089408  78.0909408  73.3550000
 106.7289408  77.5009408  72.6110000 107.4469408  78.5439408  73.4390000
 117.8639408  77.4319408  69.3610000 117.7469408  77.2979408  70.3010000
 118.3079408  78.2779408  69.2930000  91.0329408  85.6039408  73.9710000
  90.2089408  85.2399408  74.2930000  91.2309408  85.0919408  73.1870000
  91.9339408  89.6879408  78.6420000  92.2469408  88.7839408  78.6550000
  91.5109408  89.7829408  77.7880000  91.1559408  78.4609408  80.0400000
  90.2709408  78.7809408  79.8660000  91.0349408  77.5459408  80.2950000
 107.4589408  79.6149408  66.9330000 106.5709408  79.2699408  67.0270000
 107.7209408  79.3639408  66.0470000 116.6749408  77.5639408  73.5590000
 116.2789408  77.7839408  74.4030000 116.8119408  76.6169408  73.5990000
 109.9319408  83.5469408  65.4520000 109.4589408  82.7149408  65.4690000
 110.8459408  83.3059408  65.6030000 113.0439408  81.6259408  73.4910000
 112.5689408  81.6099408  72.6600000 113.9519408  81.4399408  73.2520000
 111.5259408  87.0239408  63.9340000 111.8329408  86.7029408  63.0860000
 111.8009408  87.9409408  63.9570000 112.5659408  83.1829408  66.2490000
 112.5139408  82.3989408  66.7960000 113.4839408  83.2299408  65.9820000
  92.7359408  83.2419408  81.7040000  92.8889408  83.6109408  80.8350000
  92.5469408  83.9999408  82.2570000 115.2289408  63.2469408  72.4100000
 114.8559408  62.6399408  71.7710000 116.0849408  63.4789408  72.0500000
  93.0529408  86.7679408  75.5720000  92.4119408  86.2939408  75.0430000
  93.1159408  87.6289408  75.1590000 114.1119408  81.8259408  63.7350000
 114.7569408  82.4489408  64.0690000 114.4369408  81.5849408  62.8680000
 115.3229408  76.5199408  63.7300000 115.4299408  75.8639408  63.0410000
 114.4889408  76.2979408  64.1450000 115.6729408  80.8899408  83.2500000
 115.9379408  81.6929408  82.8020000 115.0279408  80.4909408  82.6670000
 118.0719408  75.0429408  74.1250000 118.3279408  74.1539408  73.8810000
 118.7059408  75.6059408  73.6790000 111.4969408  77.6769408  68.9910000
 110.6869408  77.9649408  69.4120000 111.2069408  77.1699408  68.2330000
 111.3089408  81.2979408  70.9070000 110.3719408  81.3809408  71.0840000
 111.3559408  80.9219408  70.0280000 112.7679408  79.3119408  77.3790000
 112.3009408  80.0629408  77.0110000 113.4259408  79.6989408  77.9570000
 109.7129408  81.5399408  67.5910000 109.1179408  80.8719408  67.2500000
 110.5109408  81.0599408  67.8100000 113.7039408  77.7479408  70.5130000
 114.1529408  76.9339408  70.2860000 112.9529408  77.7799408  69.9200000
 117.4709408  85.8359408  66.5070000 117.7579408  84.9329408  66.6370000
 117.3959408  85.9299408  65.5570000 117.1539408  85.2229408  78.8610000
 117.2309408  84.5909408  78.1470000 117.9429408  85.7599408  78.7930000
 118.9979408  75.2499408  77.3840000 118.6679408  75.0439408  78.2580000
 118.5579408  74.6249408  76.8080000 107.0249408  82.7099408  77.6690000
 106.8809408  82.0149408  77.0260000 106.7759408  83.5139408  77.2140000
 115.5159408  62.1409408  62.2740000 114.6969408  62.6339408  62.2290000
 115.2789408  61.3189408  62.7030000 117.8379408  76.4779408  64.9610000
 117.1649408  76.4449408  64.2810000 118.2269408  77.3489408  64.8720000
 108.1619408  71.4479408  78.1310000 108.1129408  71.6889408  79.0560000
 109.0279408  71.7449408  77.8520000 101.7949408  64.1809408  75.4660000
 101.0579408  64.3869408  76.0420000 102.4969408  64.7619408  75.7580000
 114.1549408  88.4689408  68.6710000 114.9869408  87.9959408  68.6860000
 113.5239408  87.8559408  69.0480000 117.6299408  88.3429408  67.5860000
 117.5669408  87.3909408  67.5050000 117.5549408  88.5079408  68.5260000
 116.7179408  83.2369408  77.1170000 117.0469408  83.5299408  76.2670000
 116.4409408  82.3329408  76.9690000 118.6429408  83.4169408  62.1320000
 119.5469408  83.7219408  62.2000000 118.2299408  84.0239408  61.5180000
 108.1019408  89.3339408  73.8490000 108.8249408  89.9569408  73.9170000
 108.5209408  88.5029408  73.6270000  90.8829408  75.8929408  80.9960000
  91.0199408  75.6469408  81.9110000  90.0429408  75.4959408  80.7640000
 119.7119408  87.0349408  78.1520000 119.5509408  87.4989408  77.3300000
 119.2639408  87.5589408  78.8150000  97.1339408  83.6299408  77.5170000
  96.9599408  84.4419408  77.0430000  97.4829408  83.0339408  76.8540000
  94.8129408  80.6049408  80.3340000  94.8989408  81.5329408  80.5520000
  94.8869408  80.1529408  81.1740000 115.3029408  86.0099408  71.7730000
 115.0519408  85.5969408  70.9470000 114.6769408  86.7259408  71.8830000
 103.5109408  87.9189408  75.3630000 104.4469408  87.8499408  75.5500000
 103.2639408  87.0499408  75.0470000 111.1539408  87.1659408  66.5480000
 111.4189408  86.9389408  65.6570000 111.5359408  88.0299408  66.7000000
 106.0469408  64.5639408  75.7710000 106.0809408  64.5099408  76.7260000
 105.4529408  65.2939408  75.5940000  92.8799408  87.4629408  72.2670000
  92.0239408  87.0379408  72.2150000  93.2679408  87.3299408  71.4030000
 118.6919408  79.2009408  63.8620000 119.5599408  78.8229408  63.7170000
 118.1619408  78.8679408  63.1380000 117.3199408  78.8899408  61.5420000
 117.8129408  79.1749408  60.7720000 117.3469408  77.9339408  61.5040000
 111.9069408  80.2649408  68.2860000 111.7919408  79.3209408  68.3890000
 112.4119408  80.3589408  67.4790000 110.8209408  85.7819408  71.5460000
 110.6039408  85.9449408  70.6280000 110.7959408  86.6459408  71.9560000
 117.3569408  61.1799408  66.2670000 117.6309408  61.6629408  65.4870000
 118.0139408  60.4909408  66.3660000 108.4929408  80.8929408  71.3400000
 108.2899408  80.2629408  70.6490000 107.8709408  81.6069408  71.2050000
 117.5929408  88.9229408  70.4380000 117.4519408  89.3709408  71.2720000
 118.5019408  88.6269408  70.4740000  99.8979408  88.3239408  77.5680000
 100.5479408  87.6229408  77.5210000  99.0609408  87.8869408  77.4100000
  90.6229408  85.0849408  79.8260000  91.5509408  84.8679408  79.9130000
  90.5909408  85.7159408  79.1080000 119.5049408  69.6089408  63.9390000
 119.2369408  69.4409408  63.0360000 120.3389408  69.1489408  64.0320000
 114.9399408  88.5519408  72.8940000 115.6679408  88.0659408  73.2810000
 115.3499408  89.3119408  72.4820000 116.2609408  80.5759408  76.5330000
 115.9599408  79.7359408  76.1870000 117.1519408  80.4039408  76.8380000
  90.1289408  60.2789408  66.1440000  90.1339408  60.2069408  65.1890000
  90.6739408  59.5509408  66.4420000 110.1059408  86.3139408  68.9570000
 110.3829408  86.3689408  68.0430000 109.8789408  87.2129408  69.1940000
 111.2849408  81.4409408  63.2030000 112.1909408  81.6019408  63.4660000
 110.9289408  82.3109408  63.0260000 114.8339408  78.1349408  75.5300000
 115.1179408  77.2749408  75.8380000 114.2629408  78.4619408  76.2250000
 115.9399408  83.0769408  70.1740000 115.0409408  82.8989408  70.4490000
 115.8779408  83.8789408  69.6550000 109.0939408  85.2559408  77.6310000
 108.8449408  85.5209408  78.5160000 108.5189408  84.5169408  77.4310000
 114.6889408  86.4959408  83.9890000 115.4609408  86.4079408  83.4300000
 114.0209408  85.9579408  83.5630000 109.7889408  87.3129408  83.2930000
 110.5389408  87.1429408  82.7230000 109.6029408  88.2449408  83.1720000
 116.0789408  88.6559408  65.3270000 116.5179408  88.9459408  66.1270000
 116.5309408  87.8469408  65.0860000 118.7029408  83.2359408  80.3090000
 119.5569408  83.6369408  80.1500000 118.0819408  83.8059408  79.8540000
 109.1839408  82.3919408  79.3730000 108.8759408  82.0519408  80.2130000
 108.3959408  82.4469408  78.8330000 112.4529408  82.8319408  84.3870000
 113.2899408  83.2969408  84.4070000 111.9209408  83.3219408  83.7600000
 119.3329408  80.1069408  69.6110000 120.1389408  80.5079408  69.2850000
 118.7129408  80.1949408  68.8870000 119.7389408  61.2499408  82.7270000
 119.9719408  60.5979408  82.0660000 118.7969408  61.1349408  82.8560000
 116.4519408  78.2429408  83.9800000 116.5979408  79.0739408  83.5290000
 115.5169408  78.0689408  83.8690000  92.8429408  85.7119408  83.1490000
  93.7689408  85.4969408  83.0340000  92.8479408  86.5679408  83.5780000
 118.0669408  75.0089408  80.1910000 118.0739408  75.9439408  79.9830000
 117.1889408  74.8459408  80.5340000 119.9059408  88.0329408  81.8660000
 119.3759408  88.3819408  82.5830000 120.0419408  87.1129408  82.0930000
 110.8229408  80.4389408  84.5460000 111.4419408  81.1659408  84.6110000
 110.8099408  80.2179408  83.6140000 114.2699408  89.2149408  84.6630000
 114.2869408  88.9489408  85.5820000 114.4699408  88.4149408  84.1780000
 110.7379408  63.9019408  80.2470000 110.8629408  63.9519408  79.3000000
 111.6089408  64.0529408  80.6130000 119.0199408  88.8129408  84.3330000
 119.8619408  89.1639408  84.6250000 118.8459408  88.0819408  84.9260000
 116.1579408  86.4039408  63.9090000 115.6669408  87.2129408  64.0520000
 115.8099408  86.0549408  63.0890000 107.0399408  88.4119408  84.8180000
 107.5809408  88.5059408  85.6020000 107.1749408  87.5059408  84.5410000
 113.6199408  84.9529408  82.0760000 112.8519408  84.5989408  81.6270000
 114.1499408  85.3379408  81.3780000 111.2529408  83.5169408  80.7880000
 110.5179408  83.0819408  80.3570000 110.8559408  83.9929408  81.5170000
  93.1729408  89.6979408  83.8650000  92.8949408  89.4999408  82.9710000
  93.6089408  90.5479408  83.7990000 114.4219408  69.4159408  80.1160000
 115.2529408  69.6309408  80.5400000 113.7539408  69.7569408  80.7110000
 108.5739408  86.5729408  79.9790000 109.3969408  87.0059408  80.2050000
 107.9349408  86.9379408  80.5900000 113.9579408  61.6669408  83.3620000
 113.0839408  61.9459408  83.6370000 114.0009408  60.7409408  83.6010000
 113.5929408  80.4459408  66.1030000 114.4549408  80.0469408  66.2220000
 113.6239408  80.8299408  65.2270000 111.0189408  81.9559408  77.3460000
 110.6409408  82.0609408  78.2200000 111.4569408  82.7889408  77.1720000
 119.3579408  66.4659408  81.7420000 118.9689408  66.1709408  80.9190000
 119.0259408  65.8529408  82.3980000  95.0389408  80.2599408  83.3180000
  95.4329408  80.8059408  83.9980000  94.2329408  79.9279408  83.7140000
 112.3159408  60.6029408  60.0200000 112.8489408  60.3259408  60.7650000
 112.9519408  60.8169408  59.3370000  92.0639408  62.4419408  79.6400000
  92.0359408  63.1009408  78.9460000  91.3919408  61.8059408  79.3950000
 106.0279408  89.2599408  78.5900000 105.0909408  89.1729408  78.4130000
 106.1359408  88.9249408  79.4800000 110.3859408  84.2079408  83.2040000
 110.0829408  85.1069408  83.3300000 109.8389408  83.6859408  83.7910000
  90.8689408  66.2169408  60.9050000  91.1979408  66.6709408  60.1290000
  91.6129408  66.1979408  61.5060000 100.0009408  86.2329408  81.9690000
 100.8279408  85.7619408  82.0740000 100.2609408  87.1449408  81.8330000
 103.1139408  89.2469408  78.1040000 103.4209408  88.6579408  77.4150000
 102.3449408  89.6749408  77.7280000  94.1209408 103.6749408  13.7610000
  94.0209408 104.4239408  14.3480000  94.6659408 103.0579408  14.2490000
 109.4019408 107.0039408   3.4620000 109.3069408 106.1259408   3.8320000
 108.6369408 107.1089408   2.8970000  96.9639408 117.2739408   4.1330000
  96.2589408 116.7169408   4.4630000  96.9889408 118.0129408   4.7410000
  96.7109408 108.7099408  21.4700000  96.3839408 109.3649408  22.0880000
  97.6529408 108.8729408  21.4250000 101.8849408 101.9679408  12.0810000
 101.2899408 101.2449408  12.2800000 102.7569408 101.5759408  12.1090000
  95.8789408  96.9689408   8.7010000  95.4139408  96.1719408   8.4480000
  95.9029408  97.4959408   7.9020000 105.1049408 107.8279408  15.6050000
 104.2939408 107.6459408  15.1300000 105.7899408 107.7719408  14.9380000
  90.6359408 104.0729408   8.5360000  89.8129408 104.3929408   8.1640000
  90.9089408 103.3719408   7.9450000 108.8559408 108.6129408   9.2840000
 108.4689408 108.1719408  10.0410000 108.1489408 109.1559408   8.9360000
  99.0639408  98.6819408  17.8260000  98.4579408  98.2489408  18.4280000
  99.3939408  97.9759408  17.2700000 101.2259408 101.3479408   5.7040000
 100.6419408 101.7979408   6.3140000 101.6789408 100.6969408   6.2400000
 107.4669408 105.2269408  17.9080000 107.9479408 105.1439408  18.7320000
 108.1319408 105.1079408  17.2300000 112.0799408  99.5039408   6.3360000
 111.9909408  99.7379408   5.4120000 112.7389408 100.1109408   6.6740000
  95.6149408 103.6859408   8.9500000  95.7649408 103.7169408   9.8950000
  94.7539408 104.0859408   8.8300000 119.3079408 108.9599408  15.2020000
 119.6479408 109.5329408  15.8900000 119.8979408 109.0979408  14.4610000
 102.9309408 115.5519408  14.1980000 103.8639408 115.3599408  14.1090000
 102.5239408 115.1209408  13.4470000 118.0369408  95.5629408   5.5490000
 117.0969408  95.6829408   5.4130000 118.2159408  94.6789408   5.2300000
 108.3629408 111.3589408   0.6810000 107.7089408 112.0489408   0.5670000
 108.2789408 110.8169408  -0.1030000 100.6849408 105.9839408   6.6650000
 101.1339408 106.8249408   6.7490000  99.8769408 106.0929408   7.1670000
 118.7999408  99.9389408  15.7730000 117.8609408  99.9999408  15.5990000
 118.8569408  99.5959408  16.6650000  92.3889408 110.7699408   3.8460000
  93.1819408 111.3059408   3.8470000  92.6729408 109.9199408   4.1820000
 107.9779408 104.4559408  10.6650000 107.2519408 104.3639408  10.0480000
 107.7039408 103.9559408  11.4340000  99.6549408 114.0029408  30.1860000
  99.0479408 114.5939408  29.7410000 100.5229408 114.3469408  29.9750000
 103.5299408 104.6779408   0.5350000 102.9009408 103.9769408   0.7060000
 103.0779408 105.2629408  -0.0730000 106.9329408 112.0279408  13.3670000
 107.2779408 112.9039408  13.1980000 107.6629408 111.4399408  13.1730000
  94.4319408 118.7859408  26.2340000  94.8979408 118.1089408  25.7430000
  93.7839408 119.1269408  25.6170000 101.7599408 113.1179408   8.5430000
 101.6899408 113.8819408   7.9720000 102.0759408 112.4179408   7.9710000
 104.5309408 116.0489408   1.8910000 105.1549408 116.0429408   1.1650000
 104.9719408 115.5639408   2.5890000  91.5889408  97.8679408   5.1380000
  91.9129408  97.0799408   4.7030000  92.3749408  98.2939408   5.4810000
  94.3779408  91.6949408  16.6380000  93.4469408  91.8319408  16.4640000
  94.7679408  91.5709408  15.7730000 101.0189408  92.1809408  18.1460000
 100.7569408  93.1019408  18.1390000 101.6919408  92.1279408  18.8240000
 105.1549408  90.6799408   8.8720000 104.7649408  91.4279408   8.4200000
 105.0899408  89.9599408   8.2450000 105.4189408 104.0349408  13.0950000
 104.8099408 103.9809408  13.8320000 104.8679408 104.2559408  12.3440000
  96.8749408 116.9259408   9.7580000  97.0919408 117.8089408  10.0560000
  97.0169408 116.9499408   8.8120000 118.5349408 105.5709408   7.6430000
 118.4489408 106.1489408   6.8850000 118.1879408 106.0809408   8.3750000
  98.3539408  96.3839408   3.5020000  99.0179408  96.9059408   3.0520000
  97.9879408  96.9769408   4.1590000 114.3849408  99.4109408  17.3650000
 114.7209408  98.5179408  17.2950000 114.2909408  99.5589408  18.3060000
  97.7939408 103.7699408   7.0920000  97.1589408 103.5089408   7.7590000
  98.3649408 103.0079408   6.9930000  99.0859408  92.8069408  12.3010000
  99.2659408  93.2629408  11.4790000  99.7729408  93.1059408  12.8980000
 105.8509408 103.9929408   9.0110000 105.1649408 104.5659408   8.6690000
 105.4019408 103.1709408   9.2080000  97.6489408 107.3009408  12.5020000
  97.1329408 107.8939408  13.0490000  97.6139408 106.4609408  12.9600000
 112.4549408  93.6049408   2.6640000 111.6819408  93.5749408   2.1000000
 112.7979408  94.4919408   2.5530000 111.2289408 110.5009408  14.9470000
 110.8759408 111.0379408  15.6570000 111.9479408 111.0209408  14.5870000
 100.4099408 115.8839408  26.7950000 100.4019408 116.2829408  25.9250000
  99.6159408 116.2129408  27.2170000 101.1919408 116.2969408   1.5580000
 101.2509408 117.2469408   1.6600000 101.6389408 115.9449408   2.3270000
  94.6869408  93.6109408  12.3470000  93.8339408  93.9499408  12.0730000
  95.2309408  94.3909408  12.4540000 101.3659408 110.8169408  12.9800000
 101.3449408 111.5859408  12.4090000 102.2869408 110.5579408  12.9990000
 104.5329408 109.5259408   7.8070000 104.0209408 108.9609408   8.3850000
 103.9069408 110.1799408   7.4950000  94.9169408 104.0799408   6.0540000
  95.2429408 103.2809408   6.4690000  94.3959408 104.5079408   6.7330000
 101.9419408  94.9309408  18.4310000 102.8109408  95.3169408  18.3240000
 101.7659408  94.9919408  19.3700000  92.9999408 113.7209408   4.9930000
  92.5599408 113.1309408   5.6050000  93.7909408 113.2499408   4.7310000
  99.3909408  95.9979408  13.5600000  98.4679408  95.8209408  13.7410000
  99.5449408  95.6099408  12.6990000  96.4589408 109.0469408  14.2110000
  95.7969408 108.9559408  14.8960000  97.0899408 109.6709408  14.5690000
 102.7269408  94.7419408  13.0350000 103.5559408  94.2759408  12.9230000
 102.3699408  94.4009408  13.8560000 100.9189408 105.5149408  11.9010000
 100.0709408 105.1079408  11.7250000 100.7289408 106.4519408  11.9560000
 101.2779408  98.6519408   9.3500000 101.3409408  97.9429408   9.9910000
 100.6729408  99.2789408   9.7440000  97.3769408 118.8119408   1.6800000
  96.6809408 118.2869408   1.2850000  97.2869408 118.6599408   2.6210000
 105.6899408 108.6069408   4.5490000 105.8669408 108.6029408   3.6090000
 106.2479408 107.9129408   4.9010000  96.0069408  90.8799408   4.4630000
  96.8559408  90.4709408   4.2940000  96.1609408  91.8149408   4.3310000
  99.4119408  98.7209408   6.5640000  99.9009408  98.4549408   7.3430000
 100.0189408  99.2819408   6.0810000 100.9679408 108.3959408  15.9660000
 101.6029408 107.8829408  15.4660000 100.1389408 107.9329408  15.8490000
  99.0729408 100.0809408   9.9790000  99.3089408 100.3209408  10.8750000
  98.1399408  99.8699408  10.0250000  98.6629408 113.0849408   5.7270000
  99.1639408 112.7029408   6.4480000  99.3049408 113.2099408   5.0280000
 102.1909408  93.0269408   6.6490000 102.5829408  93.5069408   7.3790000
 102.8259408  92.3399408   6.4440000  92.7639408 100.3209408  15.9390000
  92.1979408 100.7929408  15.3280000  92.1579408  99.8679408  16.5260000
  93.7929408  95.9289408  18.5460000  94.5359408  95.3939408  18.2680000
  93.0419408  95.5539408  18.0850000  97.2649408  95.4869408  10.7700000
  96.6499408  96.0649408  10.3180000  97.6409408  94.9459408  10.0760000
  94.4899408  94.3149408   8.6110000  93.8189408  93.6769408   8.8510000
  94.7519408  94.0669408   7.7250000 108.2059408 101.1969408  11.0920000
 108.7899408 101.1579408  10.3350000 107.3289408 101.0939408  10.7250000
 102.6159408  92.7419408   2.6460000 102.2479408  93.1119408   1.8440000
 103.2749408  93.3789408   2.9240000  93.9959408 100.0319408  19.2360000
  94.7059408  99.4889408  18.8920000  94.1359408 100.8909408  18.8370000
 103.6049408  99.6929408   3.1680000 104.0819408  98.9459408   3.5280000
 104.2209408 100.4239408   3.2310000 100.6809408 101.2849408   0.4750000
 100.9629408 101.9649408  -0.1370000 100.5939408 101.7389408   1.3140000
  96.1979408 118.7859408   7.3920000  95.6229408 119.3219408   7.9370000
  96.9389408 119.3569408   7.1890000 105.6389408  96.6119408   8.9870000
 105.6199408  96.6119408   9.9440000 106.5409408  96.8459408   8.7660000
 106.1629408 110.3279408   9.8410000 105.8969408 110.1039408   8.9500000
 105.7949408 109.6309408  10.3840000 108.8369408 109.6889408  13.6890000
 109.6529408 109.8079408  14.1740000 109.0429408 109.9709408  12.7980000
  97.3569408 104.9479408  14.1060000  96.7409408 104.6609408  14.7800000
  97.7119408 104.1349408  13.7450000 112.1589408 101.9809408   8.6940000
 112.2029408 102.9319408   8.6020000 112.8179408 101.6489408   8.0840000
  91.5759408  91.8369408  12.3790000  91.6699408  91.3979408  11.5340000
  91.7809408  92.7539408  12.1980000 102.6309408 103.1459408  14.3340000
 102.2629408 103.3379408  13.4710000 102.9819408 102.2589408  14.2530000
 100.1429408  98.5439408   2.9460000 100.7999408  98.6049408   2.2530000
 100.5939408  98.8529408   3.7320000  92.9149408 106.4549408  14.3630000
  93.5279408 107.1049408  14.7050000  92.2449408 106.3749408  15.0420000
  99.9729408  91.6209408   9.1660000 100.8859408  91.7839408   8.9290000
 100.0159408  91.2549408  10.0490000 102.5159408  99.3919408   7.0440000
 102.9239408  98.9559408   6.2950000 102.6179408  98.7729408   7.7670000
 110.6819408 104.5549408  10.8580000 110.4699408 104.9719408  11.6930000
 109.8309408 104.3559408  10.4670000  95.0659408 102.1979408  18.1450000
  95.8319408 101.7159408  17.8330000  94.6889408 102.5859408  17.3550000
 107.3339408  91.3149408  17.3720000 107.1459408  92.1649408  17.7700000
 106.5919408  90.7639408  17.6200000  94.3569408 114.6489408  13.1330000
  95.1819408 115.0809408  12.9100000  93.8739408 115.2999408  13.6410000
  96.0859408 104.8579408  11.4430000  95.4669408 105.3769408  10.9300000
  95.9959408 105.1919408  12.3360000 103.4409408 106.1729408   8.5040000
 103.3789408 105.9409408   7.5780000 102.7799408 106.8539408   8.6260000
  98.5019408  94.1379408   8.6120000  98.8629408  94.4539408   7.7840000
  98.9809408  93.3279408   8.7890000  99.2219408 119.9579408  19.5540000
  99.1209408 119.3189408  18.8490000  99.7729408 120.6449408  19.1780000
  95.8979408 116.1729408  15.7840000  94.9769408 116.4009408  15.6590000
  96.2559408 116.1269408  14.8980000  94.1719408  98.0399408   6.5580000
  93.5999408  98.3309408   7.2680000  94.3229408  98.8259408   6.0330000
 110.9309408  98.1219408  17.8530000 110.4899408  98.4399408  18.6410000
 111.2959408  98.9089408  17.4480000  93.5469408 119.1949408  14.3880000
  93.4529408 118.7309408  13.5560000  94.0779408 119.9629408  14.1760000
  97.6459408 105.5889408   0.5610000  98.1379408 104.9059408   1.0160000
  98.1499408 106.3889408   0.7110000  99.7719408  92.8839408   5.6410000
 100.6209408  92.7349408   6.0590000  99.7999408  92.3549408   4.8440000
  99.0259408 106.3989408  15.6100000  98.7289408 106.0099408  16.4320000
  98.4029408 106.0809408  14.9560000 109.7759408 107.0209408   6.7930000
 109.6259408 107.7959408   6.2530000 109.1299408 107.0889408   7.4960000
 114.9269408 105.3199408   9.5870000 115.3159408 104.5869408  10.0650000
 115.3279408 105.2809408   8.7190000  95.7419408 101.5499408  12.2860000
  95.5099408 101.7689408  13.1890000  96.5849408 101.9799408  12.1450000
 105.3469408  97.8619408  13.5700000 105.5059408  97.1419408  12.9600000
 106.2199408  98.1279408  13.8590000 103.9419408 117.7469408  11.2050000
 103.6119408 117.6369408  12.0970000 103.2129408 118.1429408  10.7270000
  92.4759408 103.4329408  11.5170000  92.9669408 103.3179408  12.3310000
  92.3929408 104.3819408  11.4200000  94.0809408 100.9719408  10.1910000
  93.3579408 101.5829408  10.3280000  94.6869408 101.1519408  10.9110000
  92.4699408  92.2689408   9.4860000  91.9209408  93.0069408   9.2190000
  91.8819408  91.5139408   9.4670000  93.0199408 106.0899408  11.5960000
  92.9749408 106.1599408  12.5500000  93.1089408 106.9939408  11.2930000
 102.5739408 104.1909408  16.7410000 102.6879408 103.7449408  15.9010000
 103.3929408 104.6689408  16.8720000  99.4949408 105.9309408   3.8740000
  99.7659408 105.7989408   4.7830000  99.9059408 106.7569408   3.6190000
  98.0449408 108.2839408  17.2700000  97.8129408 107.5769408  17.8720000
  98.2419408 107.8409408  16.4450000  98.0199408  91.0509408  14.0630000
  98.1869408  91.8039408  13.4960000  98.5849408  91.1939408  14.8240000
 102.3299408 113.4389408   4.0320000 101.5709408 112.9229408   3.7610000
 103.0749408 113.0059408   3.6160000  93.8559408 118.2669408   6.1100000
  93.5329408 119.1219408   5.8250000  94.7399408 118.4389408   6.4320000
  92.1229408 112.1309408  17.8600000  92.8419408 111.8089408  17.3180000
  92.3069408 113.0629408  17.9750000 108.9909408  98.3469408   5.9690000
 109.9089408  98.3779408   6.2400000 108.8449408  97.4349408   5.7200000
  95.8029408 106.0779408   4.3120000  96.5949408 105.6419408   3.9980000
  95.6179408 105.6609408   5.1540000 105.6349408 101.6509408   3.7230000
 106.4549408 101.1739408   3.8460000 105.4639408 102.0589408   4.5730000
 103.6209408 105.0579408  11.2560000 102.8359408 105.3699408  11.7060000
 103.5009408 105.3309408  10.3470000  96.7349408 100.4089408  16.9120000
  97.6709408 100.2119408  16.8740000  96.3309408  99.5979408  17.2210000
  99.1019408 109.7299408  22.1000000  99.8669408 109.3959408  21.6300000
  99.3469408 110.6199408  22.3550000  98.8879408 110.4159408   1.5990000
  98.2829408 109.7779408   1.9770000  98.7719408 111.2019408   2.1330000
 103.4439408  90.5639408   5.1250000 104.2609408  90.5429408   5.6220000
 103.7179408  90.5099408   4.2090000  98.1309408 107.3219408   9.6840000
  98.1119408 108.2399408   9.4110000  97.9969408 107.3509408  10.6310000
 101.8609408  98.8709408   0.8180000 101.4729408  99.7019408   0.5460000
 102.8049408  99.0259408   0.7920000 104.0549408 110.7059408  19.8650000
 103.1819408 110.5199408  20.2090000 104.1139408 110.1809408  19.0660000
  98.7819408 104.8269408  10.5120000  97.8989408 104.6719408  10.8490000
  98.7299408 105.6859408  10.0920000 115.7759408 105.5769408  15.5950000
 116.5949408 105.4519408  15.1160000 115.8309408 104.9639408  16.3280000
 104.7319408  95.0299408   6.7360000 105.2879408  94.2539408   6.6670000
 105.2679408  95.6689408   7.2060000 104.8019408 105.4929408  16.8610000
 104.9129408 106.3009408  16.3600000 105.6729408 105.3059408  17.2110000
 117.4529408 102.4809408  12.6510000 116.9679408 101.6609408  12.7380000
 118.3159408 102.2169408  12.3320000 109.8039408 100.9529408   8.8190000
 110.7069408 101.2619408   8.7410000 109.2889408 101.5889408   8.3220000
 103.6759408 102.0399408   8.3110000 102.9579408 102.4469408   8.7970000
 103.3909408 101.1369408   8.1740000  94.4319408  89.9699408   9.1520000
  94.9539408  90.3289408   9.8690000  93.7079408  90.5879408   9.0490000
  93.1979408 105.2869408   7.9950000  92.5999408 105.4139408   7.2590000
  92.7259408 104.7069408   8.5910000 103.4919408 100.2479408  15.4210000
 104.1179408 100.9619408  15.5410000 104.0109408  99.5349408  15.0460000
 118.8019408  96.7519408  15.1170000 118.5949408  96.3399408  14.2790000
 117.9779408  97.1509408  15.3980000  96.3509408 102.5299408  20.8020000
  95.7639408 102.6359408  20.0530000  96.8079408 103.3679408  20.8690000
  92.1939408  92.4329408  15.0200000  91.9859408  92.0149408  14.1840000
  92.7589408  93.1699408  14.7850000 110.3539408  91.1919408  14.3940000
 111.2449408  91.0649408  14.0680000 110.3279408  92.1089408  14.6690000
 102.9529408 108.1909408   4.7110000 102.8259408 108.4779408   5.6150000
 103.8859408 108.3269408   4.5450000 101.2079408 103.2309408   9.6310000
 101.4929408 103.1859408  10.5430000 100.4689408 103.8389408   9.6400000
  95.2889408 106.5969408   1.2440000  96.1979408 106.4009408   1.4730000
  95.0949408 106.0109408   0.5130000  95.9609408  91.2959408  10.8390000
  96.7089408  91.8909408  10.8830000  95.2019408  91.8499408  11.0230000
 104.0369408  99.3019408  10.0320000 103.0859408  99.2279408   9.9500000
 104.3769408  98.5189408   9.5980000 103.8409408 105.9929408  19.9150000
 103.3829408 105.6059408  19.1690000 104.1529408 106.8389408  19.5910000
 107.9259408 103.8949408  14.1400000 106.9729408 103.9149408  14.2200000
 108.2449408 104.1439408  15.0080000 107.9639408  94.7779408   0.3340000
 107.0519408  95.0459408   0.4500000 108.1979408  94.3589408   1.1630000
  96.0819408 101.7559408   3.1260000  95.2619408 102.2489408   3.0890000
  96.7199408 102.3779408   3.4750000 110.7849408 101.9599408  17.6010000
 111.3309408 101.2469408  17.2700000 110.9109408 102.6709408  16.9720000
 106.0959408 100.7469408   9.5820000 105.3069408 100.3579408   9.9590000
 106.3329408 100.1619408   8.8630000 101.8799408 101.9409408   3.1400000
 101.5959408 101.9629408   4.0530000 102.2839408 101.0799408   3.0340000
 100.6029408 108.1769408  12.3180000  99.6709408 108.0139408  12.4610000
 100.6839408 109.1309408  12.3230000 106.8019408 110.5669408  15.9690000
 107.5409408 109.9729408  15.8380000 106.7199408 111.0359408  15.1380000
  96.3819408  93.8779408   6.2780000  96.8239408  94.1609408   7.0780000
  96.7769408  94.4079408   5.5850000 110.9929408 106.8169408   1.4860000
 111.3499408 107.6909408   1.3270000 110.4049408 106.9299408   2.2320000
 117.1529408 103.0869408  16.5300000 117.5009408 102.5009408  17.2020000
 116.4709408 102.5749408  16.0950000 118.4819408 100.9349408   9.6410000
 118.8959408 101.1749408  10.4700000 118.9019408 101.4979408   8.9910000
 104.8989408 116.5689408   8.8670000 104.8359408 116.8249408   9.7880000
 104.8469408 115.6129408   8.8800000  96.4319408  99.2409408   9.6680000
  95.6539408  99.7959408   9.6110000  96.1929408  98.4429408   9.1960000
 107.9739408 100.1959408   4.3400000 108.5639408 100.9399408   4.4650000
 108.2259408  99.5729408   5.0210000 104.5639408 101.3319408  12.5050000
 105.3129408 101.9219408  12.4160000 104.8419408 100.5249408  12.0710000
  95.8949408 109.3489408  10.4970000  95.2319408 109.5939408  11.1420000
  95.4229408 108.8129408   9.8600000 100.5329408  94.8369408  11.0850000
 100.4469408  95.5079408  10.4070000 101.3799408  95.0149408  11.4930000
  98.3729408 113.4639408  13.1860000  99.1639408 113.9339408  12.9220000
  97.6539408 113.9979408  12.8490000  98.0019408 103.8009408   4.2870000
  98.6839408 104.4149408   4.0160000  97.9259408 103.9279408   5.2330000
  98.5919408 110.0079408  11.6570000  97.6919408 109.6829408  11.6220000
  98.5009408 110.9549408  11.7650000  98.5059408 119.5499408   4.7200000
  99.2599408 119.8159408   4.1930000  98.6619408 119.9459408   5.5770000
  94.0379408 117.2559408   9.9530000  94.9729408 117.0479408   9.9550000
  93.9999408 118.1869408   9.7350000 107.8569408  95.7969408   6.3200000
 108.7739408  95.6119408   6.1180000 107.3679408  95.4069408   5.5960000
 114.8209408  97.4299408   8.6100000 114.9309408  96.7309408   7.9650000
 115.4989408  98.0679408   8.3900000  99.6499408 101.8419408   7.8760000
 100.4039408 102.2779408   8.2730000  99.2779408 101.3139408   8.5820000
 107.8409408 101.3329408  21.0730000 107.5779408 100.4969408  21.4570000
 107.0239408 101.8229408  20.9800000 106.4069408  93.6289408  19.0480000
 107.1099408  94.2789408  19.0450000 106.1969408  93.5069408  19.9740000
 108.3389408  98.6359408  17.0160000 108.1949408  99.4509408  17.4970000
 109.2549408  98.4159408  17.1850000  97.8239408  99.7049408   1.9020000
  98.6989408  99.3949408   2.1340000  97.3699408  99.7939408   2.7400000
 103.4879408  98.3599408  17.7820000 102.5719408  98.4729408  18.0380000
 103.7179408  99.1799408  17.3450000 117.1329408 103.4899408   6.5760000
 116.2129408 103.7239408   6.4540000 117.5309408 104.2739408   6.9540000
  95.3919408  99.8369408  21.5440000  94.4879408 100.0839408  21.7380000
  95.8819408 100.6569408  21.5990000 105.6989408 103.6459408  21.5090000
 104.9289408 104.2119408  21.4530000 105.7449408 103.3939408  22.4310000
  95.3759408  95.8509408   4.5400000  95.9379408  96.5929408   4.3170000
  95.1269408  96.0039408   5.4520000 111.4999408 110.8909408  21.6630000
 111.5299408 111.8449408  21.5890000 111.2169408 110.5929408  20.7990000
 113.5869408 101.2759408   3.3410000 112.6949408 101.6219408   3.3230000
 114.1119408 101.9439408   2.9000000  97.8799408 116.0279408  23.7110000
  98.5289408 116.2299408  23.0370000  97.0729408 115.8609408  23.2240000
 110.1269408 107.4139408  17.2570000 110.8569408 108.0169408  17.1180000
 110.2649408 107.0689408  18.1390000 107.7229408  99.0149408  14.5310000
 108.2079408  99.8399408  14.5330000 107.7629408  98.7109408  15.4380000
 107.0589408  94.2909408   3.6940000 107.3229408  93.4279408   4.0130000
 106.3329408  94.1129408   3.0950000  99.2999408  94.7489408  16.6790000
  98.4779408  94.7659408  16.1890000  99.0309408  94.7099408  17.5970000
 100.2849408  99.8869408  12.5980000 100.8409408  99.1149408  12.4900000
 100.1829408  99.9779408  13.5460000 118.8309408  97.2719408   2.2880000
 118.8699408  96.9779408   3.1980000 119.5399408  96.7969408   1.8530000
 107.8369408  95.8009408  18.3520000 108.7399408  95.6199408  18.0890000
 107.7859408  96.7559408  18.3950000 102.3099408 107.8379408  18.4750000
 101.5999408 107.7869408  17.8350000 102.9599408 108.4099408  18.0670000
 111.5769408 100.0929408  13.5580000 110.8019408 100.5149408  13.9290000
 111.6999408 100.5189408  12.7100000 104.6799408 119.2389408  26.7010000
 105.3729408 119.7719408  26.3100000 104.3379408 119.7769408  27.4150000
  95.6739408 113.6199408   0.0820000  96.0949408 113.8689408   0.9050000
  96.3839408 113.2649408  -0.4520000  93.0279408 108.2679408   1.4330000
  93.1569408 109.2159408   1.4620000  93.8729408 107.9189408   1.1520000
  95.6639408  98.1749408  18.2520000  96.2629408  97.8789408  18.9380000
  95.1889408  97.3859408  17.9920000  93.5549408 102.7819408   3.2750000
  92.7219408 102.4139408   3.5720000  93.4619408 103.7249408   3.4110000
 110.1159408  93.8369408  15.0270000 110.6079408  94.5009408  14.5440000
 109.2639408  93.8059408  14.5920000  99.1499408 119.6889408  22.5040000
  99.9349408 120.2339408  22.5540000  99.1679408 119.3219408  21.6200000
  92.6359408  99.1879408  12.6550000  92.1249408  99.8089408  13.1730000
  91.9839408  98.6069408  12.2650000 100.1199408  91.7629408   3.4120000
  99.5699408  91.8339408   2.6310000 100.9739408  92.0939408   3.1340000
 105.5569408 115.5499408  26.2860000 104.8219408 114.9969408  26.0220000
 106.0899408 115.6339408  25.4950000 114.7679408  96.0699408  17.1460000
 113.8289408  96.0299408  16.9640000 115.1819408  95.7409408  16.3480000
  95.1569408 101.4689408  15.1180000  94.3929408 101.0489408  15.5120000
  95.9069408 101.0229408  15.5130000 106.3049408 107.8459408  18.6500000
 106.4699408 108.5339408  18.0040000 106.6669408 107.0539408  18.2540000
  97.8019408 106.5439408   7.0640000  97.6149408 105.6139408   7.1890000
  97.8329408 106.9049408   7.9500000 102.7309408 102.2139408  18.9580000
 102.2289408 101.4239408  18.7610000 102.6519408 102.7509408  18.1690000
  93.0389408 117.9559408  28.5700000  93.2659408 117.7619408  27.6600000
  92.9049408 118.9029408  28.5870000  98.8229408 109.2789408  28.8730000
  99.0599408 108.7649408  29.6450000  98.2279408 109.9509408  29.2050000
 103.0339408 104.4019408   3.2410000 103.4299408 104.6769408   2.4150000
 102.6019408 103.5729408   3.0360000  99.2199408 100.8319408  20.8010000
  98.2959408 100.9889408  20.6070000  99.2279408 100.5439408  21.7140000
  97.2109408  98.0059408   5.3860000  96.6419408  98.7579408   5.5510000
  97.9689408  98.1489408   5.9520000 120.1159408  98.1649408  11.4220000
 120.1929408  97.2509408  11.1470000 119.2939408  98.4639408  11.0340000
 111.0649408  99.6399408   2.0140000 111.5329408  99.0169408   2.5690000
 111.5449408  99.6309408   1.1850000  94.8949408 108.8529408   6.4910000
  95.2919408 109.6979408   6.7040000  95.4089408 108.5259408   5.7530000
  90.8779408 119.1329408   1.2170000  91.1779408 119.6449408   0.4660000
  91.0379408 118.2229408   0.9670000  96.9089408  94.5699408  15.4710000
  96.4269408  95.1219408  14.8560000  96.2819408  94.3849408  16.1700000
 106.1519408 106.8349408   6.9130000 105.4469408 106.5409408   6.3350000
 105.7099408 107.0769408   7.7270000 105.4429408  90.1609408  13.2290000
 106.1079408  89.5109408  13.4580000 105.5879408  90.8799408  13.8430000
 114.0269408 109.3799408  21.4100000 114.2849408 108.4959408  21.6720000
 113.1719408 109.5119408  21.8210000 104.3959408 108.1949408  10.7400000
 104.3709408 108.1429408  11.6950000 104.2869408 107.2889408  10.4480000
 104.6329408 113.1429408  10.1660000 104.8209408 113.6079408   9.3500000
 104.7559408 112.2189408   9.9490000 105.3159408 102.0549408  16.3340000
 104.9349408 102.8129408  16.7780000 106.1729408 101.9419408  16.7450000
  99.7159408 107.2639408   0.6440000 100.4809408 106.8889408   0.2080000
 100.0779408 107.7609408   1.3780000  99.6429408 117.8269408  24.9720000
  99.4569408 117.5769408  24.0670000 100.3899408 118.4219408  24.9080000
 101.3649408  99.9299408  18.7550000 100.7509408  99.2719408  18.4300000
 101.2129408  99.9549408  19.7000000 104.3869408 110.9349408   1.0510000
 103.5169408 111.2199408   0.7720000 104.8489408 110.7409408   0.2360000
 100.7769408  99.9669408  15.3550000 101.7099408 100.1599408  15.2610000
 100.7469408  99.1889408  15.9110000 109.8279408 105.7489408  13.0870000
 110.5869408 105.7009408  13.6680000 109.2939408 104.9909408  13.3260000
 116.9299408 101.9079408   1.8610000 116.9209408 102.4829408   2.6270000
 117.6339408 101.2839408   2.0360000 105.8339408  93.3109408   1.4930000
 106.3929408  92.5349408   1.4550000 105.4889408  93.4019408   0.6050000
 103.8929408 109.7199408  17.2500000 103.8199408 110.5249408  16.7370000
 104.7049408 109.3139408  16.9450000 100.5189408  97.1779408  15.9270000
 100.5439408  96.3239408  16.3590000 100.1409408  96.9999408  15.0660000
 105.9109408 117.6449408  20.9300000 105.4609408 116.9469408  20.4540000
 105.2979408 117.8989408  21.6190000 107.6369408 120.0739408  22.6510000
 107.4279408 119.3739408  22.0330000 107.3079408 119.7569408  23.4920000
  97.9469408  97.0969408  19.7360000  97.9239408  96.1409408  19.7090000
  98.7869408  97.3059408  20.1460000 106.8989408 119.9439408   5.6780000
 106.7499408 119.2089408   6.2740000 106.6159408 119.6199408   4.8230000
  99.8299408 117.2289408   5.4010000  98.9329408 117.4469408   5.1470000
 100.3679408 117.5429408   4.6740000 108.4289408 119.3959408  28.3290000
 107.9429408 118.5779408  28.2260000 108.7299408 119.3839408  29.2380000
  91.1219408  96.0539408   9.6410000  90.6489408  96.3209408   8.8530000
  91.9209408  96.5809408   9.6320000 101.1519408 112.9069408  20.7830000
 101.1849408 111.9589408  20.9060000 100.5209408 113.0349408  20.0740000
 101.0869408 115.7069408   7.3250000 100.8939408 116.1889408   8.1280000
 100.7599408 116.2699408   6.6230000  92.6749408 108.7829408  10.9760000
  93.1839408 109.3299408  11.5740000  93.0549408 108.9529408  10.1140000
 103.9669408 105.5319408   5.7910000 104.1179408 104.5939408   5.6770000
 103.3829408 105.7699408   5.0710000  92.1679408  94.6769408  12.0900000
  91.6919408  95.0179408  11.3330000  91.8439408  95.1909408  12.8290000
  99.7219408 118.0699408   8.6160000  99.4219408 118.0619408   7.7080000
  99.1469408 118.6979408   9.0530000 101.7279408 110.3879408  21.2710000
 101.6209408 109.5149408  20.8940000 102.3419408 110.2629408  21.9960000
 118.0529408 115.8899408  12.2050000 118.2489408 116.7309408  12.6180000
 117.0989408 115.8779408  12.1250000 103.8599408  96.7389408   2.4700000
 103.0679408  97.2019408   2.1940000 103.5509408  96.0939408   3.1060000
  94.9999408 119.5199408  18.2440000  95.1339408 119.6689408  19.1800000
  94.6149408 120.3359408  17.9240000 100.5059408 109.8669408   6.1100000
  99.8559408 109.5139408   5.5030000  99.9949408 110.3779408   6.7380000
 103.0909408  95.1259408   4.6640000 103.6829408  95.1169408   5.4160000
 102.3979408  94.5079408   4.8970000  93.3269408 114.6049408  19.3680000
  94.2059408 114.2289408  19.3230000  93.4169408 115.4729408  18.9750000
  90.0379408 111.4779408   4.6990000  90.9309408 111.1549408   4.5830000
  89.4899408 110.8369408   4.2450000 105.7609408 115.8819408   4.7460000
 105.6409408 115.0999408   4.2060000 104.9199408 115.9989408   5.1890000
 104.2179408 110.3289408  13.1910000 104.4609408 111.2159408  12.9250000
 105.0449408 109.9189408  13.4450000 102.8429408 114.9729408  21.9030000
 102.4879408 114.2539408  21.3800000 103.3269408 115.5089408  21.2750000
  94.6779408 112.4899408  16.5850000  95.2769408 113.2359408  16.6160000
  95.2109408 111.7439408  16.8610000  95.7979408 111.3969408   6.7650000
  96.4539408 111.7799408   7.3470000  94.9819408 111.4349408   7.2640000
 120.0089408 111.9419408  29.8560000 119.3139408 112.0199408  30.5100000
 119.9439408 111.0409408  29.5420000 107.4849408 117.6719408   7.7400000
 106.6389408 117.2889408   7.9700000 107.8719408 117.0489408   7.1250000
  92.3099408 108.7869408   5.5240000  91.6629408 108.6259408   6.2120000
  93.1549408 108.6519408   5.9530000 104.3059408 118.7819408   7.3720000
 104.7559408 118.1469408   7.9280000 103.9669408 118.2639408   6.6420000
 114.3189408 114.7159408  14.1060000 114.8969408 113.9829408  13.8980000
 114.5489408 115.3919408  13.4680000  95.8519408 117.3879408  29.9390000
  95.2559408 117.5509408  29.2070000  95.3619408 116.8089408  30.5230000
  97.2649408 113.0889408   3.3920000  97.5729408 113.8519408   2.9040000
  97.6459408 113.1919408   4.2640000 100.3759408 113.4779408  17.1180000
  99.6279408 113.2069408  17.6500000 100.5139408 112.7509408  16.5100000
 105.4449408 115.1009408  14.0140000 106.2459408 115.2109408  13.5020000
 105.0809408 114.2679408  13.7140000  99.1669408  95.4379408   5.7480000
  98.8509408  95.6709408   4.8750000  99.4189408  94.5179408   5.6750000
  94.2729408 110.1469408  12.5690000  93.8439408 110.9559408  12.8460000
  95.0339408 110.0699408  13.1450000  93.2469408 105.4839408   3.2100000
  93.6359408 106.1419408   2.6340000  93.7999408 105.4919408   3.9910000
  94.1789408 107.7809408   8.9290000  94.2309408 108.1619408   8.0530000
  93.5919408 107.0319408   8.8310000 101.1639408 119.3629408  14.0990000
 101.9599408 119.0219408  14.5070000 100.8289408 120.0059408  14.7250000
 101.2709408 119.4239408   0.7540000 101.1439408 119.1009408  -0.1380000
 100.7259408 120.2099408   0.8040000 100.1639408 104.3359408  17.9330000
  99.7059408 103.4989408  17.8530000 100.9369408 104.2409408  17.3770000
  96.7049408 114.8669408   7.0240000  97.3139408 114.3839408   6.4660000
  96.0519408 115.2189408   6.4190000  90.7809408 107.7779408   3.0700000
  91.3749408 107.8329408   3.8190000  91.3059408 108.0689408   2.3250000
  96.9129408 116.0559408  13.0170000  96.7609408 116.9919408  13.1450000
  97.8609408 115.9539408  13.1010000  99.9689408 115.5049408  11.5150000
 100.0609408 116.2039408  12.1630000  99.5309408 115.9229408  10.7730000
 102.8559408  92.0519408   9.6080000 103.6339408  91.5559408   9.8640000
 102.6389408  92.5739408  10.3800000 100.9059408 112.2719408   1.9450000
 100.8709408 111.3879408   1.5790000 100.4339408 112.8129408   1.3120000
  90.6149408 104.7429408   2.4330000  89.9859408 105.4539408   2.5520000
  91.4659408 105.1429408   2.6100000 105.8529408 113.8829408   7.9390000
 105.9139408 113.7729408   6.9900000 106.7569408 114.0099408   8.2250000
  97.6779408 105.6369408  18.2270000  97.3809408 105.6059408  19.1360000
  98.4549408 105.0779408  18.2080000  94.3649408 112.5619408  10.9050000
  93.8259408 113.0119408  11.5560000  95.0559408 113.1889408  10.6910000
 101.6299408 113.2589408  11.2250000 101.9139408 113.2529408  10.3110000
 100.9499408 113.9319408  11.2610000  93.3079408 112.3489408  14.1740000
  93.6449408 113.1049408  13.6930000  93.8179408 112.3319408  14.9840000
 110.0859408  93.0319408   1.4180000 110.4329408  92.3479408   0.8450000
 109.2249408  92.7079408   1.6830000 109.2209408 118.9019408   9.3070000
 108.6819408 119.2899408   9.9960000 108.5979408 118.6619408   8.6210000
  90.7819408 106.6869408  15.9170000  90.1779408 106.2529408  16.5200000
  90.3069408 107.4619408  15.6180000  96.7389408 114.1779408   9.9850000
  96.8389408 115.0859408  10.2700000  96.8689408 114.2079408   9.0370000
 100.4329408  91.4439408  15.7220000 100.5989408  91.4719408  16.6650000
 100.7079408  92.3039408  15.4050000  93.3309408 109.3729408  18.2010000
  92.4419408 109.5659408  18.5000000  93.8949408 109.6769408  18.9110000
 116.3379408  98.5209408  14.7070000 115.9319408  99.3879408  14.7270000
 115.5999408  97.9109408  14.7000000  93.1059408 111.9459408   8.1800000
  93.4189408 112.7029408   8.6760000  92.1519408 112.0229408   8.2010000
 105.4369408 113.2539408  20.0090000 106.0059408 113.1119408  19.2530000
 105.0009408 112.4129408  20.1430000  97.0619408 111.4499408   9.2770000
  97.2629408 112.2119408   9.8210000  96.5489408 110.8769408   9.8470000
 102.4839408 116.0199408  29.2340000 102.1589408 115.9759408  30.1330000
 101.7009408 116.1619408  28.7020000 102.0659408 118.8869408   9.7040000
 101.2279408 118.5389408   9.3980000 102.5209408 119.1529408   8.9050000
 101.2699408 116.0949408  16.5260000 101.8939408 116.0249408  15.8040000
 101.2699408 115.2259408  16.9290000 100.8659408 108.4719408   2.7640000
 100.6719408 109.4039408   2.8690000 101.5619408 108.2989408   3.3990000
 103.6439408  90.4429408   1.8470000 102.8629408  90.2199408   1.3410000
 103.6489408  91.3999408   1.8730000  93.1739408  90.5829408   4.5740000
  94.1289408  90.6499408   4.5680000  92.8779408  91.4079408   4.9580000
  99.4209408 111.4549408   7.9740000  98.8169408 111.4819408   8.7160000
 100.2109408 111.8929408   8.2920000 118.8549408 113.9129408  10.4620000
 118.1329408 113.2899408  10.3720000 118.5459408 114.5469408  11.1090000
  97.9939408 111.3219408  14.6600000  98.8919408 111.3319408  14.9910000
  97.9779408 112.0019408  13.9870000 115.4639408 115.1709408   8.5830000
 114.5769408 115.4189408   8.3240000 115.9009408 114.9499408   7.7600000
 114.4759408 110.8279408  19.0240000 115.3199408 111.0919408  18.6570000
 114.7019408 110.2359408  19.7420000  98.2409408 109.7249408  25.2630000
  98.0479408 109.1849408  26.0300000  99.1959408 109.7239408  25.2030000
 102.9509408  91.3049408  12.5350000 103.5739408  90.6049408  12.7320000
 102.1069408  90.9639408  12.8300000 119.8429408 116.8959408   8.9490000
 119.2369408 116.1979408   8.6960000 120.4319408 116.4839408   9.5810000
 103.2739408 116.0209408   5.5640000 103.0779408 115.8549408   6.4860000
 102.5129408 115.6839408   5.0920000 103.9679408 113.1959408  12.7510000
 103.0609408 113.1179408  12.4530000 104.4749408 113.3119408  11.9480000
  97.9659408 113.2009408  24.6000000  98.6309408 112.7009408  24.1270000
  97.9549408 114.0549408  24.1660000 118.8189408 118.9629408  19.5480000
 119.3499408 118.7979408  20.3270000 117.9169408 118.8389408  19.8420000
  97.1999408  92.1849408  19.7970000  97.7519408  91.4189408  19.6400000
  96.4489408  91.8439408  20.2840000 106.6659408 102.2829408   1.1970000
 106.1439408 103.0379408   0.9240000 106.2319408 101.9649408   1.9890000
 104.5009408 102.8519408   5.8720000 104.3729408 102.6739408   6.8040000
 103.6179408 102.8409408   5.5020000 100.8959408 109.7499408   9.9370000
 100.1039408 109.8069408  10.4710000 101.6099408 109.9329408  10.5480000
 109.0259408 104.6979408   5.6060000 109.1789408 105.5409408   6.0320000
 108.8219408 104.0999408   6.3250000  96.7689408 118.4729408  14.2330000
  97.3599408 119.2059408  14.4070000  95.9639408 118.6979408  14.6990000
  99.7699408 112.6009408  26.6800000  99.2829408 112.6389408  25.8560000
  99.7329408 113.4939408  27.0220000 117.3529408  90.3099408  12.8330000
 117.5099408  89.6729408  13.5300000 117.9369408  91.0399408  13.0390000
 102.1129408 108.3489408   7.7370000 101.7449408 108.5769408   8.5910000
 101.5649408 108.8179408   7.1070000 114.6629408 109.5749408  12.4850000
 114.9049408 108.8659408  13.0800000 114.1909408 109.1409408  11.7740000
  91.4539408 119.7109408  15.8930000  91.4329408 120.6619408  16.0040000
  92.2849408 119.5399408  15.4500000  96.8329408 110.5419408  17.8900000
  97.4509408 109.8449408  17.6710000  96.2749408 110.1639408  18.5700000
 115.2199408 104.8659408   1.3530000 115.3179408 104.0859408   0.8060000
 114.4369408 105.3009408   1.0120000 108.8679408 117.6099408   3.3490000
 109.7269408 117.3279408   3.6620000 108.2529408 117.2769408   4.0020000
  98.3579408  94.1779408   1.8600000  98.4489408  94.8209408   2.5630000
  97.5369408  93.7239408   2.0540000 101.2019408 118.7629408   3.4690000
 101.2119408 119.5939408   3.9450000 101.6049408 118.9659408   2.6240000
  96.1329408 113.5059408  20.1000000  96.3269408 113.2889408  19.1880000
  96.9599408 113.8419408  20.4480000 100.2109408 118.4339408  11.9620000
 101.0079408 118.2959408  11.4500000 100.5229408 118.6039408  12.8510000
  91.6809408 118.4499408   7.5820000  92.3499408 117.9409408   7.1260000
  90.8959408 117.9039408   7.5440000 115.9239408 112.7609408  13.2040000
 115.7279408 112.7439408  12.2670000 116.0819408 111.8459408  13.4340000
 109.3099408 116.6769408  14.0320000 109.6109408 116.8749408  14.9190000
 109.3619408 115.7229408  13.9680000  93.3539408 114.7089408   9.0660000
  93.7559408 115.5449408   9.3010000  92.5179408 114.9489408   8.6650000
  91.4129408 116.7549408   0.3960000  92.1889408 117.0679408  -0.0690000
  91.2349408 115.8959408   0.0140000 119.6089408 117.8679408  15.3230000
 120.1049408 117.1339408  14.9590000 120.2649408 118.5469408  15.4810000
 112.3659408 104.6299408   8.6880000 111.7399408 104.6659408   9.4110000
 113.1379408 105.0919408   9.0160000  91.5119408 109.0599408  13.6060000
  90.8219408 109.4449408  13.0660000  92.0049408 108.5029408  13.0030000
  93.9449408 116.8669408  18.1460000  93.7629408 116.8199408  17.2080000
  94.4529408 117.6719408  18.2510000 103.2799408 112.0519408  15.6120000
 102.3279408 111.9589408  15.6370000 103.5199408 111.8259408  14.7140000
 102.9559408 111.3659408   6.3640000 103.4859408 111.8059408   5.6990000
 102.4029408 110.7609408   5.8690000  93.4409408  96.1809408   1.9050000
  94.0029408  96.8479408   1.5100000  93.9759408  95.7989408   2.6010000
 107.0119408 113.5979408   0.0990000 107.4669408 114.3679408   0.4400000
 106.1409408 113.9179408  -0.1370000  97.1949408 112.4749408  28.1130000
  96.6079408 112.3649408  27.3650000  98.0739408 112.3999408  27.7400000
 108.2589408 102.5979408   7.4360000 107.7069408 101.9699408   6.9700000
 107.6589408 103.0499408   8.0290000  90.1369408  93.5589408   5.8370000
  89.9919408  92.6449408   5.5950000  90.0729408  93.5669408   6.7920000
 116.3759408 113.1479408  22.1470000 115.9069408 113.8409408  21.6830000
 117.2419408 113.1299408  21.7400000 102.6159408 112.0489408  24.5270000
 102.7129408 111.7699408  25.4380000 103.1399408 111.4229408  24.0270000
  94.7479408 116.4299408   2.0810000  94.8309408 115.7089408   2.7050000
  93.9279408 116.8609408   2.3190000  99.2759408 116.4629408  14.7030000
  99.7309408 116.2569408  15.5190000  99.1089408 117.4049408  14.7520000
 113.3719408 119.3539408  16.9710000 113.3079408 118.3989408  16.9860000
 112.9949408 119.6059408  16.1290000 106.2559408 113.4489408  22.4580000
 105.9049408 113.5529408  21.5740000 105.4959408 113.5559408  23.0320000
  96.9949408 105.9949408  20.7340000  96.4209408 105.7369408  21.4560000
  96.9939408 106.9519408  20.7580000 106.4109408 117.9309408  16.0400000
 106.7929408 118.4529408  16.7440000 106.9819408 118.0879408  15.2870000
 104.1419408 114.1589408  24.0840000 103.6309408 113.3779408  24.2940000
 103.5819408 114.6599408  23.4910000  95.5179408 110.8639408   0.6340000
  94.6129408 110.9029408   0.3240000  95.8689408 111.7369408   0.4600000
  93.9199408 113.7329408  27.9040000  93.7749408 112.7969408  27.7640000
  94.6069408 113.7729408  28.5690000 113.3409408 115.3679408  26.2690000
 113.8739408 115.7849408  25.5910000 112.6439408 115.9989408  26.4470000
 111.0999408 117.1969408  26.2780000 110.7519408 117.3389408  25.3980000
 111.3499408 118.0699408  26.5810000 104.6979408 115.7839408  19.6430000
 104.8279408 115.7939408  18.6940000 104.6369408 114.8559408  19.8670000
 101.6579408 119.4879408  25.1230000 101.5199408 120.2759408  25.6490000
 102.5939408 119.3049408  25.2060000  95.6269408 115.5319408  22.0670000
  96.1349408 115.9269408  21.3580000  95.2669408 114.7309408  21.6870000
 101.6979408 110.0789408  29.7730000 100.8099408 109.8989408  29.4640000
 102.0089408 109.2409408  30.1130000 100.6369408 111.0749408  15.7480000
 101.0509408 110.3259408  16.1760000 100.8889408 110.9959408  14.8280000
 104.6939408 117.6009408  29.4540000 103.7959408 117.3609408  29.6810000
 104.6029408 118.1929408  28.7070000 104.6019408 118.8039408  23.5100000
 105.1489408 118.3629408  24.1610000 104.6489408 119.7299408  23.7450000
  98.0119408 115.6129408  29.1090000  97.3469408 115.9979408  29.6800000
  97.5689408 115.4959408  28.2690000 107.2359408 115.8399408  24.2300000
 107.9919408 115.7569408  23.6490000 106.6439408 115.1399408  23.9550000
 106.3829408 115.0279408  16.5230000 105.9809408 114.9789408  15.6560000
 106.6939408 115.9299408  16.5930000  89.8979408 115.6919408  22.9550000
  89.7849408 114.8959408  23.4740000  90.8379408 115.7319408  22.7780000
  98.7329408 115.2859408   2.7840000  99.4529408 115.3559408   2.1580000
  98.2929408 116.1349408   2.7390000  95.4859408 107.0279408  25.4590000
  95.3769408 106.1209408  25.7470000  96.3439408 107.2849408  25.7970000
  99.9189408  93.5539408  21.8240000  99.1149408  93.4609408  22.3350000
 100.5089408  92.8899408  22.1800000 101.3379408 118.9519408  27.8980000
 100.3879408 118.9459408  27.7800000 101.6909408 118.7969408  27.0220000
  98.4839408 102.6569408  12.7750000  98.7579408 103.2109408  12.0450000
  99.2489408 102.1129408  12.9640000  94.8689408 112.0059408   4.4930000
  95.4839408 112.3369408   3.8380000  95.3879408 111.9349408   5.2950000
  91.1839408 113.8679408   2.2820000  91.7039408 113.3719408   1.6500000
  91.6219408 113.7219408   3.1200000  97.4129408 116.2019408  20.0570000
  97.4249408 116.6489408  19.2110000  98.2419408 116.4469408  20.4690000
 102.1609408 111.0939408  27.1720000 101.3539408 111.5889408  27.0280000
 102.4389408 111.3399408  28.0540000 111.6459408 115.8579408  19.2480000
 111.8839408 115.4889408  18.3980000 111.1379408 115.1669408  19.6750000
  91.9099408 116.0429408  26.4380000  91.0299408 116.3809408  26.2760000
  91.8099408 115.4669408  27.1960000 116.5009408 113.4099408   3.8900000
 117.2679408 113.2959408   3.3290000 116.1529408 114.2679408   3.6490000
 102.1069408 118.3369408  22.1520000 102.8629408 118.3479408  22.7390000
 101.9139408 119.2609408  21.9920000  96.9049408 119.6589408  24.4020000
  97.4049408 119.1249408  25.0190000  97.5369408 119.8999408  23.7250000
  98.8949408 111.6709408  19.8570000  98.2309408 111.5909408  19.1720000
  98.9859408 110.7849408  20.2080000 100.1359408 112.0139408  23.1660000
 100.2959408 112.4989408  22.3560000 100.9959408 111.9489408  23.5810000
 108.4869408  98.0279408   1.6070000 109.1999408  98.3819408   2.1380000
 108.0509408  98.7999408   1.2450000  97.2789408 116.4109408  26.2950000
  96.3539408 116.2849408  26.0820000  97.7199408 116.4259408  25.4460000
 104.4529408 110.9099408   3.7780000 104.3679408 110.7669408   2.8350000
 105.0229408 110.2019408   4.0770000  97.1399408 117.5469408  17.6840000
  96.8289408 117.2759408  16.8200000  96.5409408 118.2459408  17.9460000
 105.7979408 118.7229408   3.2530000 105.6619408 117.7969408   3.0530000
 105.1299408 119.1799408   2.7420000  99.0859408  91.1759408   1.1750000
  98.4019408  90.5059408   1.1510000  98.6729408  91.9539408   0.8020000
  98.0329408 119.1679408  10.5370000  98.6119408 118.8459408  11.2270000
  97.5109408 119.8489408  10.9610000 102.8329408 106.8609408  13.8650000
 102.4649408 105.9809408  13.9370000 102.1939408 107.3459408  13.3420000
  98.4229408 118.5869408  27.7970000  98.0969408 118.0029408  27.1120000
  98.0209408 118.2599408  28.6020000  95.5019408  90.1759408  20.8970000
  95.1519408  90.8029408  21.5300000  95.3639408  89.3209408  21.3060000
 104.6709408  97.7959408   5.3550000 105.3629408  97.6749408   4.7050000
 104.3999408  96.9069408   5.5840000 102.2429408  96.3459408   7.8770000
 103.0639408  95.9189408   7.6340000 101.5769408  95.9019408   7.3520000
 114.9609408 105.1169408   6.4150000 114.0719408 105.3439408   6.1410000
 115.4919408 105.8699408   6.1570000 109.3769408  97.5459408  12.7920000
 109.5639408  97.9789408  11.9590000 108.9799408  98.2279408  13.3340000
 119.9389408 102.9329408  20.1570000 119.2409408 103.5489408  19.9330000
 119.5489408 102.0699408  20.0180000 113.4369408  98.0999408  14.6000000
 113.0629408  98.4679408  13.7990000 113.0709408  97.2169408  14.6520000
 117.4789408  93.9939408  10.6530000 117.3369408  94.2939408   9.7560000
 117.7139408  93.0699408  10.5640000 113.8419408  97.9109408  11.1330000
 113.2649408  98.4849408  10.6300000 114.5029408  97.6239408  10.5030000
 114.1399408  91.3499408  10.9420000 113.2239408  91.4689408  11.1920000
 114.1099408  90.7419408  10.2040000  90.0609408  96.7279408  17.5830000
  90.7789408  97.3319408  17.7720000  89.7179408  97.0209408  16.7390000
 109.3879408 102.0239408   1.7080000 108.4449408 102.1189408   1.5730000
 109.5609408 101.0969408   1.5410000 108.6229408  94.8899408  12.5080000
 109.1929408  94.4829408  11.8550000 108.9969408  95.7609408  12.6440000
 118.2209408 113.3229408  14.8680000 117.5639408 113.4529408  14.1850000
 119.0359408 113.1649408  14.3900000 117.7609408  92.7849408   3.9490000
 118.2159408  92.0179408   3.6010000 117.0409408  92.9349408   3.3370000
 105.8699408  97.0169408   0.6600000 105.2029408  96.8519408   1.3270000
 106.4569408  97.6569408   1.0610000 115.9399408  95.4359408  14.7680000
 116.1589408  95.8389408  13.9280000 115.7629408  94.5199408  14.5560000
 115.4509408  96.9699408   5.4990000 114.8859408  96.2069408   5.3780000
 115.7639408  97.1789408   4.6180000  90.4629408 112.8909408  13.2580000
  90.2129408 111.9829408  13.0880000  91.3599408 112.8359408  13.5870000
 104.7979408 101.2589408  20.4950000 104.1209408 101.7319408  20.0110000
 105.3779408 101.9449408  20.8280000 108.4659408 113.8039408   9.1880000
 108.8379408 114.6159408   8.8460000 108.9149408 113.1109408   8.7040000
 106.7079408  97.0059408   3.8860000 107.1969408  97.5149408   3.2390000
 106.7849408  96.0999408   3.5860000  95.6159408  93.9159408  17.9620000
  96.1299408  93.4149408  18.5940000  95.1099408  93.2559408  17.4870000
 115.2969408  95.6169408  19.7390000 116.1719408  95.2819408  19.5430000
 114.9219408  95.8239408  18.8830000 100.5079408  97.1349408  20.9140000
 101.3479408  96.7929408  20.6060000 100.6289408  97.2549408  21.8560000
  95.4309408  98.9249408  13.3460000  94.5449408  98.8439408  13.6980000
  95.4069408  99.7229408  12.8170000 119.5329408  90.6999408   3.3760000
 120.1959408  90.7629408   2.6890000 119.1429408  89.8339408   3.2540000
 109.1209408 101.3209408  13.8360000 108.7309408 101.3989408  12.9650000
 108.7629408 102.0599408  14.3270000 113.4509408 106.6139408  17.9200000
 113.0099408 107.2459408  17.3520000 112.8429408 106.4799408  18.6470000
  91.2429408 115.3819408  11.0890000  91.8839408 114.7989408  10.6820000
  90.4409408 114.8619408  11.1370000  90.5589408  93.4369408   2.1060000
  90.9039408  93.9419408   1.3700000  89.6199408  93.3699408   1.9320000
 115.4529408 113.0009408   6.3470000 116.1639408 112.5919408   6.8410000
 115.8259408 113.1649408   5.4810000 109.8289408 102.1619408   4.8400000
 110.2879408 102.3219408   5.6640000 109.5549408 103.0299408   4.5450000
 115.5609408 101.1319408  15.4750000 115.1189408 100.5969408  16.1340000
 114.8589408 101.6419408  15.0700000  91.6959408 104.5629408   5.6540000
  91.0739408 104.5129408   4.9270000  91.7619408 103.6639408   5.9750000
 111.6259408 109.4869408   1.2030000 112.4039408 109.0829408   1.5860000
 111.3859408 110.1789408   1.8190000 119.2179408 113.7659408   5.8380000
 119.3659408 114.3189408   5.0710000 119.4309408 112.8809408   5.5410000
 111.2669408  90.7559408   8.5830000 111.3999408  91.0999408   9.4660000
 110.5919408  90.0849408   8.6870000 117.0549408 110.3509408  13.5330000
 116.2059408 110.0659408  13.1960000 117.4329408 109.5649408  13.9270000
 113.3629408  95.0449408  11.8150000 113.7649408  95.8809408  11.5770000
 114.1039408  94.4649408  11.9930000 112.5319408 113.9129408  16.2690000
 113.3199408 113.8259408  16.8050000 112.8589408 114.0669408  15.3830000
  90.1739408 101.8329408  11.6060000  90.4409408 101.6049408  12.4960000
  90.8999408 102.3529408  11.2630000 115.7369408 109.1459408   8.1800000
 114.8499408 109.1279408   8.5390000 116.1869408 108.4239408   8.6170000
 106.6539408  99.5689408   7.1000000 106.2859408  99.1019408   6.3490000
 107.5579408  99.2609408   7.1550000 108.3429408 115.7469408   6.0430000
 108.8659408 114.9999408   5.7510000 107.5969408 115.7659408   5.4440000
  94.7929408 115.8129408   5.2480000  94.3529408 116.6369408   5.4600000
  94.0799408 115.1949408   5.0880000 113.2419408 113.1659408  10.4920000
 112.9709408 113.7249408   9.7630000 112.5509408 112.5069408  10.5570000
 115.7379408 116.5139408  16.0000000 115.5399408 115.6189408  15.7260000
 114.8859408 116.8929408  16.2160000  90.0309408  96.3349408   7.2890000
  89.4529408  95.8939408   6.6650000  90.7089408  96.7369408   6.7450000
  95.4109408  91.6389408  14.1010000  96.3529408  91.5459408  13.9540000
  95.1199408  92.2449408  13.4200000 102.0409408  93.7889408   0.3090000
 101.4489408  94.5119408   0.1020000 102.7159408  93.8299408  -0.3690000
 114.4599408  92.0869408  17.5660000 114.6979408  92.1839408  16.6440000
 113.9199408  91.2969408  17.5930000  98.5499408  94.3989408  19.4280000
  99.1569408  94.0959408  20.1040000  97.8149408  93.7869408  19.4750000
 111.2339408  91.7299408  11.0500000 111.0569408  91.7479408  11.9900000
 111.0979408  92.6329408  10.7630000 112.1169408  96.2239408  16.4610000
 111.5759408  96.8179408  16.9810000 111.6809408  96.1839408  15.6100000
 117.9949408  91.5439408   9.2960000 117.6689408  90.7739408   9.7610000
 117.5859408  91.4939408   8.4320000  94.1849408 109.2609408  15.5620000
  93.2749408 109.4589408  15.3410000  94.2369408 109.3929408  16.5080000
 114.5889408 102.8039408  18.0590000 115.3309408 102.2919408  17.7360000
 114.9889408 103.5189408  18.5550000 119.8669408 112.4849408  23.7190000
 120.5199408 112.0109408  23.2050000 119.1229408 112.5889408  23.1250000
 112.9719408 119.7709408   6.6800000 112.3179408 120.1079408   7.2920000
 113.6439408 119.3789408   7.2390000 120.0319408  99.3559408   7.3470000
 119.0959408  99.2539408   7.5190000 120.1719408  98.9109408   6.5120000
 102.1399408  97.4559408  12.2220000 103.0799408  97.4309408  12.0430000
 101.9669408  96.6499408  12.7080000 112.2569408 102.3619408  11.4830000
 111.7519408 103.1539408  11.2990000 112.2079408 101.8529408  10.6740000
 117.9939408  98.9349408  18.7130000 118.8849408  98.7869408  19.0320000
 117.4419408  98.4079408  19.2910000  92.6369408  98.9269408   8.6340000
  93.0599408  99.1289408   9.4690000  91.7709408  99.3279408   8.7010000
  91.9669408  98.2519408  18.4270000  92.8179408  98.6559408  18.5950000
  91.4089408  98.5619408  19.1400000 117.5039408  95.9579408  12.6760000
 117.6349408  95.1329408  12.2080000 117.4329408  96.6169408  11.9850000
  96.0659408  93.5049408   3.3350000  95.7129408  94.3689408   3.5490000
  95.3759408  93.0859408   2.8200000 110.1629408  93.2489408   7.1740000
 110.7889408  92.6829408   7.6270000 109.4289408  93.3299408   7.7820000
 106.8479408 119.6619408  10.6200000 106.3209408 119.0759408  11.1630000
 106.2789408 119.8849408   9.8840000  95.8869408 100.2809408   5.3640000
  95.6359408 100.8369408   6.1020000  95.8729408 100.8659408   4.6070000
 112.0509408 117.8479408  21.3780000 112.2919408 117.3129408  20.6220000
 112.4079408 118.7149408  21.1820000 116.0049408 118.4509408  20.5770000
 115.3879408 117.8689408  20.1320000 115.6789408 119.3319408  20.3920000
 105.9519408 105.9449408   0.6750000 105.0699408 105.6069408   0.8280000
 106.3909408 105.2529408   0.1800000 112.1649408  97.7679408   8.6350000
 113.0789408  97.4839408   8.6030000 112.1279408  98.5239408   8.0490000
 114.3869408 100.8979408   7.2380000 114.6949408 101.3449408   8.0260000
 115.0989408 101.0059408   6.6070000 110.4669408 117.5979408  16.5020000
 110.0149408 118.4079408  16.7400000 109.9129408 116.9009408  16.8520000
 107.1799408 114.4859408  11.5940000 107.1339408 114.0919408  10.7230000
 107.8769408 115.1389408  11.5260000 117.1109408  97.9229408  10.7590000
 116.6699408  98.6599408  11.1820000 117.2859408  98.2279408   9.8680000
 114.4309408  98.2329408   0.1660000 114.9999408  98.8329408  -0.3160000
 114.9499408  97.9689408   0.9260000 117.6649408 107.8339408  20.4340000
 117.0099408 107.9209408  21.1270000 117.7929408 108.7259408  20.1110000
 110.4459408  95.7249408   5.9510000 110.6899408  94.9389408   6.4390000
 111.2809408  96.0999408   5.6680000 113.0409408 115.6989408   7.7480000
 112.2169408 116.1149408   7.4950000 113.0589408 114.8799408   7.2530000
 105.0709408  93.1099408  11.9730000 105.9309408  92.7019408  11.8700000
 104.5769408  92.4959408  12.5170000  91.2549408  96.8109408  14.1630000
  90.3669408  96.7379408  14.5100000  91.5479408  97.6809408  14.4330000
  91.2039408 108.3319408   8.1590000  91.7869408 108.4599408   8.9080000
  90.4139408 107.9419408   8.5330000 115.3289408 103.5029408  11.5810000
 115.0329408 104.2309408  12.1270000 116.1189408 103.1829408  12.0170000
 117.1119408 117.8559408  14.3000000 116.6299408 117.3489408  14.9530000
 118.0099408 117.8809408  14.6300000 114.7879408  92.1149408   5.8990000
 114.1839408  91.3719408   5.9120000 115.6579408  91.7159408   5.9040000
 109.4179408 105.1679408  16.0930000 110.2329408 104.6729408  16.0060000
 109.6999408 106.0539408  16.3210000 117.7659408 103.5989408   3.8470000
 117.7389408 103.8419408   4.7720000 117.9009408 104.4269408   3.3850000
  95.1689408 104.5189408  16.3780000  95.8409408 104.4369408  17.0540000
  94.4199408 104.9079408  16.8290000 114.5049408  93.7859408   8.3370000
 114.6659408  93.1259408   7.6630000 115.3689408  93.9629408   8.7110000
 117.8919408 105.9599408   1.8140000 117.0629408 105.4949408   1.6950000
 118.2699408 106.0039408   0.9360000 111.4209408  95.9589408  13.7260000
 110.7449408  96.4539408  13.2630000 112.0389408  95.6999408  13.0420000
  94.4059408 100.8699408   1.0480000  93.6999408 101.4429408   1.3470000
  95.1239408 101.0339408   1.6600000 107.9489408 107.1749408  11.2960000
 107.9059408 106.2389408  11.0990000 108.8179408 107.2979408  11.6800000
 115.4809408 101.9639408   9.4060000 115.1199408 102.5119408  10.1030000
 116.2799408 101.5939408   9.7810000 117.2379408  94.9699408   8.0610000
 117.3909408  95.8909408   8.2740000 117.5609408  94.8749408   7.1650000
 106.7859408 108.4209408   1.6810000 106.7219408 107.5299408   1.3370000
 107.4129408 108.8559408   1.1040000 113.2589408  90.4689408  14.2250000
 113.7039408  89.7619408  13.7580000 113.9489408  91.1049408  14.4120000
  98.5139408 108.9249408   4.6940000  98.4449408 107.9949408   4.9100000
  97.8739408 109.0569408   3.9950000  90.9149408 102.1979408   3.5130000
  90.7669408 102.8599408   2.8380000  90.2449408 101.5339408   3.3490000
 106.2619408  95.6629408  11.8050000 107.1559408  95.3529408  11.9450000
 105.7269408  94.8699408  11.8260000 115.2609408  92.5219408  15.1500000
 116.1599408  92.1979408  15.2140000 115.1129408  92.6349408  14.2110000
 116.0369408  99.7699408  12.4210000 116.3529408  99.1019408  13.0300000
 115.0999408  99.8379408  12.6050000 113.0209408  98.4339408   3.5050000
 113.2149408  99.3699408   3.4500000 113.4379408  98.1499408   4.3190000
 108.3969408  91.7669408   4.5070000 108.1719408  91.0319408   5.0770000
 109.3529408  91.8069408   4.5340000 119.4079408 110.4649408  12.4830000
 118.5159408 110.4729408  12.8300000 119.2959408 110.4509408  11.5330000
 109.9099408  98.3669408  10.0660000 109.9099408  99.2509408   9.6990000
 110.6139408  97.9149408   9.6030000 112.3429408 107.8229408  13.7280000
 112.4789408 108.5569408  14.3260000 111.4959408 107.9999408  13.3180000
  90.9789408 101.7839408   6.4660000  90.8059408 101.5689408   5.5490000
  90.8379408 100.9619408   6.9360000 108.5449408  96.2349408   8.9460000
 108.6869408  96.3049408   8.0020000 108.8589408  97.0669408   9.2990000
 107.5829408  92.1169408  11.6990000 107.5359408  91.9249408  12.6360000
 107.4419408  91.2719408  11.2740000 113.0879408  96.0449408   2.2860000
 113.1179408  96.9629408   2.5550000 112.5769408  96.0479408   1.4770000
 109.4299408 119.0179408   0.8690000 110.3869408 119.0099408   0.8630000
 109.1899408 118.4979408   1.6360000 119.4029408 111.3029408  16.8030000
 119.1189408 112.1149408  16.3830000 120.2919408 111.4879408  17.1050000
 119.9999408  93.3119408   8.7350000 119.2879408  92.6869408   8.8720000
 119.6239408  94.1599408   8.9690000  97.9229408  90.9289408   7.0610000
  98.3859408  91.4039408   7.7510000  97.6119408  91.6119408   6.4670000
 116.0629408  96.2019408   2.8730000 116.7759408  96.4759408   2.2960000
 115.4759408  95.7009408   2.3070000 115.4119408 110.8149408   1.5320000
 115.4999408 110.9999408   0.5970000 116.2239408 110.3649408   1.7650000
 110.9419408  94.3839408  17.7550000 110.5819408  93.9059408  17.0080000
 111.5239408  95.0359408  17.3640000 119.4049408  99.7769408   1.2160000
 119.7829408  99.6169408   0.3520000 118.8879408  98.9919408   1.4010000
 117.5159408 101.6489408  18.8270000 117.5849408 100.6959408  18.7670000
 117.6049408 101.8379408  19.7610000 111.7639408 103.3609408   2.3840000
 111.7739408 103.7069408   1.4920000 110.9559408 102.8499408   2.4340000
 118.0309408 115.7699408   0.2010000 117.6519408 116.3839408  -0.4290000
 118.7909408 116.2309408   0.5560000 118.7599408 118.1839408   3.0480000
 118.8759408 117.2849408   3.3560000 119.4779408 118.3219408   2.4310000
 112.4329408 114.4709408   0.8190000 111.6569408 114.3989408   1.3750000
 112.5059408 113.6149408   0.3970000 109.5569408 109.2589408   4.7920000
 109.8279408 108.5009408   4.2750000 109.5719408 109.9889408   4.1730000
 116.9399408 100.5709408   5.5480000 117.2969408 101.4359408   5.7460000
 117.5429408 100.2049408   4.9000000 113.0549408 116.8219408  15.9560000
 112.1179408 116.8199408  16.1500000 113.1779408 116.0819408  15.3610000
  91.7139408  94.7479408   4.2270000  91.3929408  94.3309408   3.4270000
  91.0859408  94.4889408   4.9010000 116.7119408 118.8939408   1.2240000
 117.5319408 118.5429408   1.5710000 116.3319408 119.3829408   1.9540000
 114.2559408 113.5429408  18.3680000 114.2759408 112.7569408  18.9150000
 115.1489408 113.6239408  18.0320000 117.4089408 118.0439408  28.3580000
 116.8659408 118.5749408  28.9420000 118.0689408 118.6529408  28.0260000
  96.1619408 111.5309408  25.3790000  96.6229408 112.3089408  25.0660000
  96.8009408 110.8229408  25.2930000 114.1759408 108.5089408   1.7660000
 114.5339408 109.3739408   1.5650000 114.8279408 108.1069408   2.3410000
 115.2449408 105.1359408  19.2390000 114.6809408 105.3399408  19.9860000
 115.0279408 105.8009408  18.5860000 117.8889408  92.9389408   0.7890000
 117.1389408  92.3659408   0.9500000 117.5709408  93.8159408   1.0000000
 110.0679408  96.6019408  20.6770000 110.4109408  95.7399408  20.4420000
 110.8469408  97.1369408  20.8290000 114.0009408  94.7069408   5.0710000
 113.8849408  94.5229408   4.1390000 114.2479408  93.8649408   5.4530000
  99.8899408 101.8059408  17.1790000 100.2009408 101.2239408  17.8720000
 100.1229408 101.3559408  16.3660000 113.6059408 102.7209408  14.1930000
 113.3069408 102.6279408  13.2890000 113.8659408 103.6389408  14.2670000
 113.0969408  97.0939408  20.7320000 113.5719408  97.7899408  20.2780000
 113.5829408  96.2959408  20.5220000 111.2829408  94.2129408  10.2370000
 112.1709408  94.4309408  10.5200000 110.9569408  95.0169408   9.8310000
  95.2779408 101.5559408   7.5480000  94.8449408 100.9229408   8.1220000
  95.5749408 102.2489408   8.1370000  96.0519408  96.0389408  12.9900000
  96.7619408  95.9259408  12.3580000  95.9799408  96.9859408  13.1040000
 116.9689408 116.1229408  22.1750000 117.8909408 116.2139408  22.4190000
 116.8059408 116.8519408  21.5770000  90.5089408  99.7659408  13.8980000
  89.8269408  99.7809408  14.5700000  90.2249408  99.0889408  13.2830000
 112.0069408 103.9469408  16.1180000 112.6479408 103.3789408  15.6900000
 112.4899408 104.3509408  16.8390000  93.1369408 105.9089408  17.4420000
  93.2879408 106.7359408  17.8990000  92.3239408 106.0479408  16.9560000
 114.1139408  93.7159408  21.1230000 114.5879408  94.4759408  20.7840000
 114.5419408  93.5189408  21.9560000 103.7419408  96.4529408  15.6390000
 104.2449408  96.8479408  14.9270000 103.4279408  97.1979408  16.1520000
  93.9139408 104.3159408  20.0960000  93.3239408 105.0459408  20.2810000
  93.8699408 104.2069408  19.1460000 109.3529408  99.0949408  19.9650000
 108.9699408  99.8979408  20.3180000 109.1119408  98.4159408  20.5960000
 107.2159408  92.2419408  14.2630000 107.4569408  91.6839408  15.0030000
 106.9959408  93.0849408  14.6600000  92.0539408 102.5049408  21.6720000
  92.7779408 103.0489408  21.3630000  91.3189408 102.7389408  21.1060000
 117.4739408  98.2959408   7.3770000 117.0789408  99.0559408   6.9490000
 117.4529408  97.6089408   6.7110000  94.6389408  98.2059408   0.3610000
  94.5499408  99.1419408   0.5400000  95.5799408  98.0399408   0.4160000
  93.5789408  95.2939408  14.7230000  94.2869408  95.7469408  14.2640000
  92.8469408  95.9109408  14.7040000 104.3679408  98.5949408  20.4910000
 104.4269408  99.5469408  20.5680000 104.3979408  98.4279408  19.5490000
  92.4339408 119.4479408  21.3220000  91.7669408 118.7629408  21.3040000
  92.1439408 120.0829408  20.6670000  91.7099408  94.5589408  17.3620000
  91.2679408  94.1129408  16.6390000  91.0809408  95.2169408  17.6580000
  93.7859408  93.1389408   5.5410000  94.7399408  93.2159408   5.5740000
  93.5029408  93.8839408   5.0110000 118.6129408 110.5529408  20.3810000
 119.2029408 110.8629408  21.0670000 118.5069408 111.3039408  19.7970000
 108.5159408 115.7009408   0.7170000 108.6129408 116.6029408   1.0230000
 109.1969408 115.5999408   0.0510000 114.3199408 105.3179408  13.4330000
 113.7379408 106.0469408  13.2200000 114.8819408 105.6559408  14.1310000
 112.5469408 105.5769408   4.2880000 111.8889408 106.0879408   3.8160000
 112.4899408 104.7009408   3.9070000 109.5539408  90.0589408  17.2370000
 109.8519408  90.3489408  16.3750000 108.6799408  90.4369408  17.3290000
 114.5779408 116.1839408  19.7680000 115.3119408 115.7339408  19.3490000
 113.8019408 115.8429408  19.3220000 111.9709408 119.7309408   4.2900000
 111.4919408 120.5529408   4.3860000 112.2929408 119.5359408   5.1700000
 109.7779408 113.9979408  13.5600000 110.2779408 114.1409408  12.7560000
 110.3799408 113.5269408  14.1360000 106.2369408  92.5929408   7.0360000
 106.4979408  91.7169408   6.7530000 107.0569408  93.0199408   7.2820000
 107.8549408  93.6489408   8.8230000 108.0219408  94.5789408   8.9790000
 107.6949408  93.2839408   9.6930000 110.3289408 114.1079408   2.8240000
 109.6049408 114.5969408   2.4350000 110.2499408 114.2699408   3.7640000
 117.1489408 111.4149408   8.1260000 117.0169408 111.9989408   8.8730000
 116.3659408 110.8649408   8.1090000 111.1139408  92.1109408   4.7390000
 111.1109408  92.6599408   5.5240000 111.5609408  92.6399408   4.0780000
 112.0079408 100.1399408  16.2200000 111.9829408 100.3189408  15.2790000
 112.8879408  99.7949408  16.3750000 106.6089408 108.0909408  13.3550000
 106.7289408 107.5009408  12.6110000 107.4469408 108.5439408  13.4390000
 117.8639408 107.4319408   9.3610000 117.7469408 107.2979408  10.3010000
 118.3079408 108.2779408   9.2930000  91.0329408 115.6039408  13.9710000
  90.2089408 115.2399408  14.2930000  91.2309408 115.0919408  13.1870000
  91.9339408 119.6879408  18.6420000  92.2469408 118.7839408  18.6550000
  91.5109408 119.7829408  17.7880000  91.1559408 108.4609408  20.0400000
  90.2709408 108.7809408  19.8660000  91.0349408 107.5459408  20.2950000
  92.0799408 118.3339408   3.5080000  91.6479408 118.7749408   2.7770000
  92.4669408 119.0439408   4.0210000 107.4589408 109.6149408   6.9330000
 106.5709408 109.2699408   7.0270000 107.7209408 109.3639408   6.0470000
 116.6749408 107.5639408  13.5590000 116.2789408 107.7839408  14.4030000
 116.8119408 106.6169408  13.5990000 109.9319408 113.5469408   5.4520000
 109.4589408 112.7149408   5.4690000 110.8459408 113.3059408   5.6030000
 113.0439408 111.6259408  13.4910000 112.5689408 111.6099408  12.6600000
 113.9519408 111.4399408  13.2520000 111.5259408 117.0239408   3.9340000
 111.8329408 116.7029408   3.0860000 111.8009408 117.9409408   3.9570000
 112.5659408 113.1829408   6.2490000 112.5139408 112.3989408   6.7960000
 113.4839408 113.2299408   5.9820000  92.7359408 113.2419408  21.7040000
  92.8889408 113.6109408  20.8350000  92.5469408 113.9999408  22.2570000
 115.2289408  93.2469408  12.4100000 114.8559408  92.6399408  11.7710000
 116.0849408  93.4789408  12.0500000  93.0529408 116.7679408  15.5720000
  92.4119408 116.2939408  15.0430000  93.1159408 117.6289408  15.1590000
 114.1119408 111.8259408   3.7350000 114.7569408 112.4489408   4.0690000
 114.4369408 111.5849408   2.8680000 115.3229408 106.5199408   3.7300000
 115.4299408 105.8639408   3.0410000 114.4889408 106.2979408   4.1450000
  91.2079408 114.3789408  28.9760000  90.7519408 113.5889408  29.2650000
  92.1189408 114.1049408  28.8680000 115.6729408 110.8899408  23.2500000
 115.9379408 111.6929408  22.8020000 115.0279408 110.4909408  22.6670000
 118.0719408 105.0429408  14.1250000 118.3279408 104.1539408  13.8810000
 118.7059408 105.6059408  13.6790000 111.4969408 107.6769408   8.9910000
 110.6869408 107.9649408   9.4120000 111.2069408 107.1699408   8.2330000
 111.3089408 111.2979408  10.9070000 110.3719408 111.3809408  11.0840000
 111.3559408 110.9219408  10.0280000 109.9409408 115.9629408  28.3800000
 109.0549408 116.3189408  28.3170000 110.3819408 116.2749408  27.5900000
 112.7679408 109.3119408  17.3790000 112.3009408 110.0629408  17.0110000
 113.4259408 109.6989408  17.9570000 109.7129408 111.5399408   7.5910000
 109.1179408 110.8719408   7.2500000 110.5109408 111.0599408   7.8100000
 113.7039408 107.7479408  10.5130000 114.1529408 106.9339408  10.2860000
 112.9529408 107.7799408   9.9200000 117.4709408 115.8359408   6.5070000
 117.7579408 114.9329408   6.6370000 117.3959408 115.9299408   5.5570000
 117.1539408 115.2229408  18.8610000 117.2309408 114.5909408  18.1470000
 117.9429408 115.7599408  18.7930000 118.9979408 105.2499408  17.3840000
 118.6679408 105.0439408  18.2580000 118.5579408 104.6249408  16.8080000
 107.0249408 112.7099408  17.6690000 106.8809408 112.0149408  17.0260000
 106.7759408 113.5139408  17.2140000 115.5159408  92.1409408   2.2740000
 114.6969408  92.6339408   2.2290000 115.2789408  91.3189408   2.7030000
 117.8379408 106.4779408   4.9610000 117.1649408 106.4449408   4.2810000
 118.2269408 107.3489408   4.8720000 108.1619408 101.4479408  18.1310000
 108.1129408 101.6889408  19.0560000 109.0279408 101.7449408  17.8520000
 101.7949408  94.1809408  15.4660000 101.0579408  94.3869408  16.0420000
 102.4969408  94.7619408  15.7580000 114.6279408 119.7129408   3.2650000
 113.6809408 119.5999408   3.3410000 114.9819408 119.3039408   4.0550000
 114.1549408 118.4689408   8.6710000 114.9869408 117.9959408   8.6860000
 113.5239408 117.8559408   9.0480000 117.6299408 118.3429408   7.5860000
 117.5669408 117.3909408   7.5050000 117.5549408 118.5079408   8.5260000
 116.7179408 113.2369408  17.1170000 117.0469408 113.5299408  16.2670000
 116.4409408 112.3329408  16.9690000 118.6429408 113.4169408   2.1320000
 119.5469408 113.7219408   2.2000000 118.2299408 114.0239408   1.5180000
 108.1019408 119.3339408  13.8490000 108.8249408 119.9569408  13.9170000
 108.5209408 118.5029408  13.6270000 119.7119408 117.0349408  18.1520000
 119.5509408 117.4989408  17.3300000 119.2639408 117.5589408  18.8150000
  97.1339408 113.6299408  17.5170000  96.9599408 114.4419408  17.0430000
  97.4829408 113.0339408  16.8540000  94.8129408 110.6049408  20.3340000
  94.8989408 111.5329408  20.5520000  94.8869408 110.1529408  21.1740000
 105.4609408 113.4619408   3.0360000 105.9439408 113.2799408   2.2300000
 105.3659408 112.6069408   3.4560000 103.5109408 117.9189408  15.3630000
 104.4469408 117.8499408  15.5500000 103.2639408 117.0499408  15.0470000
 115.1669408 115.1589408   1.8110000 114.2559408 114.8679408   1.8270000
 115.3879408 115.2049408   0.8810000 111.1539408 117.1659408   6.5480000
 111.4189408 116.9389408   5.6570000 111.5359408 118.0299408   6.7000000
 107.0539408 116.8609408  28.2050000 106.3929408 117.1089408  28.8510000
 106.5519408 116.4939408  27.4770000 106.0469408  94.5639408  15.7710000
 106.0809408  94.5099408  16.7260000 105.4529408  95.2939408  15.5940000
  92.8799408 117.4629408  12.2670000  92.0239408 117.0379408  12.2150000
  93.2679408 117.3299408  11.4030000 118.6919408 109.2009408   3.8620000
 119.5599408 108.8229408   3.7170000 118.1619408 108.8679408   3.1380000
 117.3199408 108.8899408   1.5420000 117.8129408 109.1749408   0.7720000
 117.3469408 107.9339408   1.5040000  90.1709408 115.8719408   3.6420000
  90.6029408 115.3299408   2.9810000  90.8439408 116.4929408   3.9200000
 111.9069408 110.2649408   8.2860000 111.7919408 109.3209408   8.3890000
 112.4119408 110.3589408   7.4790000 110.8209408 115.7819408  11.5460000
 110.6039408 115.9449408  10.6280000 110.7959408 116.6459408  11.9560000
 117.3569408  91.1799408   6.2670000 117.6309408  91.6629408   5.4870000
 118.0139408  90.4909408   6.3660000 108.4929408 110.8929408  11.3400000
 108.2899408 110.2629408  10.6490000 107.8709408 111.6069408  11.2050000
 117.5929408 118.9229408  10.4380000 117.4519408 119.3709408  11.2720000
 118.5019408 118.6269408  10.4740000  99.8979408 118.3239408  17.5680000
 100.5479408 117.6229408  17.5210000  99.0609408 117.8869408  17.4100000
  90.6229408 115.0849408  19.8260000  91.5509408 114.8679408  19.9130000
  90.5909408 115.7159408  19.1080000 119.5049408  99.6089408   3.9390000
 119.2369408  99.4409408   3.0360000 120.3389408  99.1489408   4.0320000
 114.9399408 118.5519408  12.8940000 115.6679408 118.0659408  13.2810000
 115.3499408 119.3119408  12.4820000 116.2609408 110.5759408  16.5330000
 115.9599408 109.7359408  16.1870000 117.1519408 110.4039408  16.8380000
  90.9209408 119.9589408   9.9480000  91.4189408 119.3979408   9.3520000
  90.0779408 120.0829408   9.5120000  90.1289408  90.2789408   6.1440000
  90.1339408  90.2069408   5.1890000  90.6739408  89.5509408   6.4420000
 110.1059408 116.3139408   8.9570000 110.3829408 116.3689408   8.0430000
 109.8789408 117.2129408   9.1940000 113.6379408 119.1839408  27.3740000
 113.8629408 118.6559408  28.1400000 113.7149408 120.0889408  27.6760000
 107.8029408  91.4979408   2.0150000 107.8179408  91.3079408   2.9530000
 107.9959408  90.6579408   1.5970000 111.2849408 111.4409408   3.2030000
 112.1909408 111.6019408   3.4660000 110.9289408 112.3109408   3.0260000
 114.8339408 108.1349408  15.5300000 115.1179408 107.2749408  15.8380000
 114.2629408 108.4619408  16.2250000 115.9399408 113.0769408  10.1740000
 115.0409408 112.8989408  10.4490000 115.8779408 113.8789408   9.6550000
  90.5509408 113.0329408   8.3860000  90.1859408 113.4379408   7.6000000
  89.8569408 113.1109408   9.0410000 109.0939408 115.2559408  17.6310000
 108.8449408 115.5209408  18.5160000 108.5189408 114.5169408  17.4310000
 114.6889408 116.4959408  23.9890000 115.4609408 116.4079408  23.4300000
 114.0209408 115.9579408  23.5630000 109.7889408 117.3129408  23.2930000
 110.5389408 117.1429408  22.7230000 109.6029408 118.2449408  23.1720000
 116.0789408 118.6559408   5.3270000 116.5179408 118.9459408   6.1270000
 116.5309408 117.8469408   5.0860000 111.9989408 117.5469408   1.0180000
 112.9239408 117.6119408   0.7810000 111.7279408 116.6889408   0.6910000
 107.6129408 110.7449408   3.2240000 107.4149408 109.8939408   2.8320000
 107.7729408 111.3209408   2.4770000 118.7029408 113.2359408  20.3090000
 119.5569408 113.6369408  20.1500000 118.0819408 113.8059408  19.8540000
 109.1839408 112.3919408  19.3730000 108.8759408 112.0519408  20.2130000
 108.3959408 112.4469408  18.8330000 112.4529408 112.8319408  24.3870000
 113.2899408 113.2969408  24.4070000 111.9209408 113.3219408  23.7600000
 119.3329408 110.1069408   9.6110000 120.1389408 110.5079408   9.2850000
 118.7129408 110.1949408   8.8870000 104.6139408 114.3099408  28.8680000
 103.7559408 114.7329408  28.8890000 105.0889408 114.7639408  28.1720000
 119.0999408 116.4319408  25.9860000 118.5239408 116.4859408  26.7480000
 118.5919408 115.9469408  25.3350000 117.4289408 114.6289408  24.5640000
 116.6139408 114.5409408  24.0710000 117.3679408 113.9629408  25.2490000
  92.8429408 115.7119408  23.1490000  93.7689408 115.4969408  23.0340000
  92.8479408 116.5679408  23.5780000 118.0669408 105.0089408  20.1910000
 118.0739408 105.9439408  19.9830000 117.1889408 104.8459408  20.5340000
 119.9059408 118.0329408  21.8660000 119.3759408 118.3819408  22.5830000
 120.0419408 117.1129408  22.0930000  93.7959408  92.6399408   1.5360000
  93.1589408  93.0979408   0.9870000  93.2689408  92.0539408   2.0780000
 114.2699408 119.2149408  24.6630000 114.2869408 118.9489408  25.5820000
 114.4699408 118.4149408  24.1780000 110.7379408  93.9019408  20.2470000
 110.8629408  93.9519408  19.3000000 111.6089408  94.0529408  20.6130000
 119.0199408 118.8129408  24.3330000 119.8619408 119.1639408  24.6250000
 118.8459408 118.0819408  24.9260000 116.1579408 116.4039408   3.9090000
 115.6669408 117.2129408   4.0520000 115.8099408 116.0549408   3.0890000
 107.0399408 118.4119408  24.8180000 107.5809408 118.5059408  25.6020000
 107.1749408 117.5059408  24.5410000 113.6199408 114.9529408  22.0760000
 112.8519408 114.5989408  21.6270000 114.1499408 115.3379408  21.3780000
 111.2529408 113.5169408  20.7880000 110.5179408 113.0819408  20.3570000
 110.8559408 113.9929408  21.5170000  93.1729408 119.6979408  23.8650000
  92.8949408 119.4999408  22.9710000  93.6089408 120.5479408  23.7990000
 114.4219408  99.4159408  20.1160000 115.2529408  99.6309408  20.5400000
 113.7539408  99.7569408  20.7110000  92.7039408 111.1609408   0.5350000
  91.8629408 111.6189408   0.5440000  92.8899408 111.0209408  -0.3940000
 108.5739408 116.5729408  19.9790000 109.3969408 117.0059408  20.2050000
 107.9349408 116.9379408  20.5900000 113.5929408 110.4459408   6.1030000
 114.4549408 110.0469408   6.2220000 113.6239408 110.8299408   5.2270000
 111.0189408 111.9559408  17.3460000 110.6409408 112.0609408  18.2200000
 111.4569408 112.7889408  17.1720000  95.0389408 110.2599408  23.3180000
  95.4329408 110.8059408  23.9980000  94.2329408 109.9279408  23.7140000
 114.5659408 117.9129408  29.5880000 114.9279408 117.0679408  29.3220000
 115.1819408 118.2429408  30.2420000 112.3159408  90.6029408   0.0200000
 112.8489408  90.3259408   0.7650000 112.9519408  90.8169408  -0.6630000
  92.0639408  92.4419408  19.6400000  92.0359408  93.1009408  18.9460000
  91.3919408  91.8059408  19.3950000 106.0279408 119.2599408  18.5900000
 105.0909408 119.1729408  18.4130000 106.1359408 118.9249408  19.4800000
 110.3859408 114.2079408  23.2040000 110.0829408 115.1069408  23.3300000
 109.8389408 113.6859408  23.7910000  90.8689408  96.2169408   0.9050000
  91.1979408  96.6709408   0.1290000  91.6129408  96.1979408   1.5060000
  94.5629408 115.8619408  25.9740000  93.6279408 116.0279408  26.0910000
  94.7009408 114.9909408  26.3480000 100.0009408 116.2329408  21.9690000
 100.8279408 115.7619408  22.0740000 100.2609408 117.1449408  21.8330000
 103.1139408 119.2469408  18.1040000 103.4209408 118.6579408  17.4150000
 102.3449408 119.6749408  17.7280000 111.2879408  95.2629408  59.9310000
 110.5409408  94.9539408  60.4440000 110.9199408  95.9259408  59.3470000
  96.9639408 117.2739408  34.1330000  96.2589408 116.7169408  34.4630000
  96.9889408 118.0129408  34.7410000 108.8559408 108.6129408  39.2840000
 108.4689408 108.1719408  40.0410000 108.1489408 109.1559408  38.9360000
 102.9309408 115.5519408  44.1980000 103.8639408 115.3599408  44.1090000
 102.5239408 115.1209408  43.4470000 100.6849408 105.9839408  36.6650000
 101.1339408 106.8249408  36.7490000  99.8769408 106.0929408  37.1670000
  92.3889408 110.7699408  33.8460000  93.1819408 111.3059408  33.8470000
  92.6729408 109.9199408  34.1820000  99.6549408 114.0029408  60.1860000
  99.0479408 114.5939408  59.7410000 100.5229408 114.3469408  59.9750000
 106.9329408 112.0279408  43.3670000 107.2779408 112.9039408  43.1980000
 107.6629408 111.4399408  43.1730000  94.4319408 118.7859408  56.2340000
  94.8979408 118.1089408  55.7430000  93.7839408 119.1269408  55.6170000
 101.7599408 113.1179408  38.5430000 101.6899408 113.8819408  37.9720000
 102.0759408 112.4179408  37.9710000 104.5309408 116.0489408  31.8910000
 105.1549408 116.0429408  31.1650000 104.9719408 115.5639408  32.5890000
  96.8749408 116.9259408  39.7580000  97.0919408 117.8089408  40.0560000
  97.0169408 116.9499408  38.8120000  97.7939408 103.7699408  37.0920000
  97.1589408 103.5089408  37.7590000  98.3649408 103.0079408  36.9930000
 111.2289408 110.5009408  44.9470000 110.8759408 111.0379408  45.6570000
 111.9479408 111.0209408  44.5870000 101.1919408 116.2969408  31.5580000
 101.2509408 117.2469408  31.6600000 101.6389408 115.9449408  32.3270000
 101.3659408 110.8169408  42.9800000 101.3449408 111.5859408  42.4090000
 102.2869408 110.5579408  42.9990000 104.5329408 109.5259408  37.8070000
 104.0209408 108.9609408  38.3850000 103.9069408 110.1799408  37.4950000
  92.9999408 113.7209408  34.9930000  92.5599408 113.1309408  35.6050000
  93.7909408 113.2499408  34.7310000  97.3769408 118.8119408  31.6800000
  96.6809408 118.2869408  31.2850000  97.2869408 118.6599408  32.6210000
  98.6629408 113.0849408  35.7270000  99.1639408 112.7029408  36.4480000
  99.3049408 113.2099408  35.0280000 102.6159408  92.7419408  32.6460000
 102.2479408  93.1119408  31.8440000 103.2749408  93.3789408  32.9240000
 113.6789408 109.2509408  55.6230000 112.9449408 108.9459408  56.1550000
 114.0749408 109.9529408  56.1400000  96.1979408 118.7859408  37.3920000
  95.6229408 119.3219408  37.9370000  96.9389408 119.3569408  37.1890000
 106.1629408 110.3279408  39.8410000 105.8969408 110.1039408  38.9500000
 105.7949408 109.6309408  40.3840000 108.8369408 109.6889408  43.6890000
 109.6529408 109.8079408  44.1740000 109.0429408 109.9709408  42.7980000
 103.4409408 106.1729408  38.5040000 103.3789408 105.9409408  37.5780000
 102.7799408 106.8539408  38.6260000  99.2219408 119.9579408  49.5540000
  99.1209408 119.3189408  48.8490000  99.7729408 120.6449408  49.1780000
  93.5469408 119.1949408  44.3880000  93.4529408 118.7309408  43.5560000
  94.0779408 119.9629408  44.1760000 103.9419408 117.7469408  41.2050000
 103.6119408 117.6369408  42.0970000 103.2129408 118.1429408  40.7270000
 102.3299408 113.4389408  34.0320000 101.5709408 112.9229408  33.7610000
 103.0749408 113.0059408  33.6160000  93.8559408 118.2669408  36.1100000
  93.5329408 119.1219408  35.8250000  94.7399408 118.4389408  36.4320000
  98.8879408 110.4159408  31.5990000  98.2829408 109.7779408  31.9770000
  98.7719408 111.2019408  32.1330000  98.7819408 104.8269408  40.5120000
  97.8989408 104.6719408  40.8490000  98.7299408 105.6859408  40.0920000
 108.8059408 108.6449408  59.5420000 109.1739408 107.7629408  59.4910000
 109.4979408 109.2139408  59.2050000 102.9529408 108.1909408  34.7110000
 102.8259408 108.4779408  35.6150000 103.8859408 108.3269408  34.5450000
 106.8019408 110.5669408  45.9690000 107.5409408 109.9729408  45.8380000
 106.7199408 111.0359408  45.1380000 104.8989408 116.5689408  38.8670000
 104.8359408 116.8249408  39.7880000 104.8469408 115.6129408  38.8800000
  98.5059408 119.5499408  34.7200000  99.2599408 119.8159408  34.1930000
  98.6619408 119.9459408  35.5770000  94.0379408 117.2559408  39.9530000
  94.9729408 117.0479408  39.9550000  93.9999408 118.1869408  39.7350000
 111.4999408 110.8909408  51.6630000 111.5299408 111.8449408  51.5890000
 111.2169408 110.5929408  50.7990000  97.8799408 116.0279408  53.7110000
  98.5289408 116.2299408  53.0370000  97.0729408 115.8609408  53.2240000
 112.0739408  99.3869408  59.4840000 112.9599408  99.0269408  59.4310000
 111.4999408  98.6319408  59.3590000 104.6799408 119.2389408  56.7010000
 105.3729408 119.7719408  56.3100000 104.3379408 119.7769408  57.4150000
  95.6739408 113.6199408  30.0820000  96.0949408 113.8689408  30.9050000
  96.3839408 113.2649408  29.5480000  99.1499408 119.6889408  52.5040000
  99.9349408 120.2339408  52.5540000  99.1679408 119.3219408  51.6200000
 105.5569408 115.5499408  56.2860000 104.8219408 114.9969408  56.0220000
 106.0899408 115.6339408  55.4950000  97.8019408 106.5439408  37.0640000
  97.6149408 105.6139408  37.1890000  97.8329408 106.9049408  37.9500000
  94.8949408 108.8529408  36.4910000  95.2919408 109.6979408  36.7040000
  95.4089408 108.5259408  35.7530000  90.8779408 119.1329408  31.2170000
  91.1779408 119.6449408  30.4660000  91.0379408 118.2229408  30.9670000
 114.0269408 109.3799408  51.4100000 114.2849408 108.4959408  51.6720000
 113.1719408 109.5119408  51.8210000 104.6329408 113.1429408  40.1660000
 104.8209408 113.6079408  39.3500000 104.7559408 112.2189408  39.9490000
 112.2929408 107.8109408  53.8080000 112.1829408 107.0259408  54.3450000
 112.7159408 108.4419408  54.3890000  99.6429408 117.8269408  54.9720000
  99.4569408 117.5769408  54.0670000 100.3899408 118.4219408  54.9080000
 104.3869408 110.9349408  31.0510000 103.5169408 111.2199408  30.7720000
 104.8489408 110.7409408  30.2360000 103.8929408 109.7199408  47.2500000
 103.8199408 110.5249408  46.7370000 104.7049408 109.3139408  46.9450000
 105.9109408 117.6449408  50.9300000 105.4609408 116.9469408  50.4540000
 105.2979408 117.8989408  51.6190000 107.6369408 120.0739408  52.6510000
 107.4279408 119.3739408  52.0330000 107.3079408 119.7569408  53.4920000
 106.8989408 119.9439408  35.6780000 106.7499408 119.2089408  36.2740000
 106.6159408 119.6199408  34.8230000  99.8299408 117.2289408  35.4010000
  98.9329408 117.4469408  35.1470000 100.3679408 117.5429408  34.6740000
 108.4289408 119.3959408  58.3290000 107.9429408 118.5779408  58.2260000
 108.7299408 119.3839408  59.2380000 101.1519408 112.9069408  50.7830000
 101.1849408 111.9589408  50.9060000 100.5209408 113.0349408  50.0740000
 101.0869408 115.7069408  37.3250000 100.8939408 116.1889408  38.1280000
 100.7599408 116.2699408  36.6230000  99.7219408 118.0699408  38.6160000
  99.4219408 118.0619408  37.7080000  99.1469408 118.6979408  39.0530000
 118.0529408 115.8899408  42.2050000 118.2489408 116.7309408  42.6180000
 117.0989408 115.8779408  42.1250000  94.9999408 119.5199408  48.2440000
  95.1339408 119.6689408  49.1800000  94.6149408 120.3359408  47.9240000
 100.5059408 109.8669408  36.1100000  99.8559408 109.5139408  35.5030000
  99.9949408 110.3779408  36.7380000  93.3269408 114.6049408  49.3680000
  94.2059408 114.2289408  49.3230000  93.4169408 115.4729408  48.9750000
 105.7609408 115.8819408  34.7460000 105.6409408 115.0999408  34.2060000
 104.9199408 115.9989408  35.1890000 104.2179408 110.3289408  43.1910000
 104.4609408 111.2159408  42.9250000 105.0449408 109.9189408  43.4450000
 102.8429408 114.9729408  51.9030000 102.4879408 114.2539408  51.3800000
 103.3269408 115.5089408  51.2750000  95.7979408 111.3969408  36.7650000
  96.4539408 111.7799408  37.3470000  94.9819408 111.4349408  37.2640000
 120.0089408 111.9419408  59.8560000 119.3139408 112.0199408  60.5100000
 119.9439408 111.0409408  59.5420000 107.4849408 117.6719408  37.7400000
 106.6389408 117.2889408  37.9700000 107.8719408 117.0489408  37.1250000
  92.3099408 108.7869408  35.5240000  91.6629408 108.6259408  36.2120000
  93.1549408 108.6519408  35.9530000 104.3059408 118.7819408  37.3720000
 104.7559408 118.1469408  37.9280000 103.9669408 118.2639408  36.6420000
 114.3189408 114.7159408  44.1060000 114.8969408 113.9829408  43.8980000
 114.5489408 115.3919408  43.4680000  96.4959408 108.9039408  32.3800000
  95.9039408 109.5189408  31.9470000  95.9969408 108.0889408  32.4350000
  97.2649408 113.0889408  33.3920000  97.5729408 113.8519408  32.9040000
  97.6459408 113.1919408  34.2640000 100.3759408 113.4779408  47.1180000
  99.6279408 113.2069408  47.6500000 100.5139408 112.7509408  46.5100000
 105.4449408 115.1009408  44.0140000 106.2459408 115.2109408  43.5020000
 105.0809408 114.2679408  43.7140000 101.1639408 119.3629408  44.0990000
 101.9599408 119.0219408  44.5070000 100.8289408 120.0059408  44.7250000
 101.2709408 119.4239408  30.7540000 101.1439408 119.1009408  29.8620000
 100.7259408 120.2099408  30.8040000  96.7049408 114.8669408  37.0240000
  97.3139408 114.3839408  36.4660000  96.0519408 115.2189408  36.4190000
  99.9689408 115.5049408  41.5150000 100.0609408 116.2039408  42.1630000
  99.5309408 115.9229408  40.7730000 100.9059408 112.2719408  31.9450000
 100.8709408 111.3879408  31.5790000 100.4339408 112.8129408  31.3120000
 105.8529408 113.8829408  37.9390000 105.9139408 113.7729408  36.9900000
 106.7569408 114.0099408  38.2250000 101.6299408 113.2589408  41.2250000
 101.9139408 113.2529408  40.3110000 100.9499408 113.9319408  41.2610000
 109.2209408 118.9019408  39.3070000 108.6819408 119.2899408  39.9960000
 108.5979408 118.6619408  38.6210000  96.7389408 114.1779408  39.9850000
  96.8389408 115.0859408  40.2700000  96.8689408 114.2079408  39.0370000
 105.4369408 113.2539408  50.0090000 106.0059408 113.1119408  49.2530000
 105.0009408 112.4129408  50.1430000  97.0619408 111.4499408  39.2770000
  97.2629408 112.2119408  39.8210000  96.5489408 110.8769408  39.8470000
 102.4839408 116.0199408  59.2340000 102.1589408 115.9759408  60.1330000
 101.7009408 116.1619408  58.7020000 102.0659408 118.8869408  39.7040000
 101.2279408 118.5389408  39.3980000 102.5209408 119.1529408  38.9050000
 101.2699408 116.0949408  46.5260000 101.8939408 116.0249408  45.8040000
 101.2699408 115.2259408  46.9290000 100.8659408 108.4719408  32.7640000
 100.6719408 109.4039408  32.8690000 101.5619408 108.2989408  33.3990000
  99.4209408 111.4549408  37.9740000  98.8169408 111.4819408  38.7160000
 100.2109408 111.8929408  38.2920000 118.8549408 113.9129408  40.4620000
 118.1329408 113.2899408  40.3720000 118.5459408 114.5469408  41.1090000
 115.4639408 115.1709408  38.5830000 114.5769408 115.4189408  38.3240000
 115.9009408 114.9499408  37.7600000 114.4759408 110.8279408  49.0240000
 115.3199408 111.0919408  48.6570000 114.7019408 110.2359408  49.7420000
 119.8429408 116.8959408  38.9490000 119.2369408 116.1979408  38.6960000
 120.4319408 116.4839408  39.5810000 103.2739408 116.0209408  35.5640000
 103.0779408 115.8549408  36.4860000 102.5129408 115.6839408  35.0920000
 103.9679408 113.1959408  42.7510000 103.0609408 113.1179408  42.4530000
 104.4749408 113.3119408  41.9480000 118.8189408 118.9629408  49.5480000
 119.3499408 118.7979408  50.3270000 117.9169408 118.8389408  49.8420000
 100.8959408 109.7499408  39.9370000 100.1039408 109.8069408  40.4710000
 101.6099408 109.9329408  40.5480000  96.7689408 118.4729408  44.2330000
  97.3599408 119.2059408  44.4070000  95.9639408 118.6979408  44.6990000
 102.1129408 108.3489408  37.7370000 101.7449408 108.5769408  38.5910000
 101.5649408 108.8179408  37.1070000 114.6629408 109.5749408  42.4850000
 114.9049408 108.8659408  43.0800000 114.1909408 109.1409408  41.7740000
  91.4539408 119.7109408  45.8930000  91.4329408 120.6619408  46.0040000
  92.2849408 119.5399408  45.4500000 108.8679408 117.6099408  33.3490000
 109.7269408 117.3279408  33.6620000 108.2529408 117.2769408  34.0020000
 101.2019408 118.7629408  33.4690000 101.2119408 119.5939408  33.9450000
 101.6049408 118.9659408  32.6240000 100.2109408 118.4339408  41.9620000
 101.0079408 118.2959408  41.4500000 100.5229408 118.6039408  42.8510000
 107.3879408 112.3639408  57.4260000 107.6389408 112.8729408  58.1970000
 108.1209408 112.4709408  56.8190000  91.6809408 118.4499408  37.5820000
  92.3499408 117.9409408  37.1260000  90.8959408 117.9039408  37.5440000
 115.9239408 112.7609408  43.2040000 115.7279408 112.7439408  42.2670000
 116.0819408 111.8459408  43.4340000 109.3099408 116.6769408  44.0320000
 109.6109408 116.8749408  44.9190000 109.3619408 115.7229408  43.9680000
  93.3539408 114.7089408  39.0660000  93.7559408 115.5449408  39.3010000
  92.5179408 114.9489408  38.6650000  91.4129408 116.7549408  30.3960000
  92.1889408 117.0679408  29.9310000  91.2349408 115.8959408  30.0140000
 119.6089408 117.8679408  45.3230000 120.1049408 117.1339408  44.9590000
 120.2649408 118.5469408  45.4810000  93.9449408 116.8669408  48.1460000
  93.7629408 116.8199408  47.2080000  94.4529408 117.6719408  48.2510000
 103.2799408 112.0519408  45.6120000 102.3279408 111.9589408  45.6370000
 103.5199408 111.8259408  44.7140000 102.9559408 111.3659408  36.3640000
 103.4859408 111.8059408  35.6990000 102.4029408 110.7609408  35.8690000
 107.0119408 113.5979408  30.0990000 107.4669408 114.3679408  30.4400000
 106.1409408 113.9179408  29.8630000 105.3399408 110.8529408  58.1340000
 104.7079408 111.5289408  57.8920000 106.1799408 111.1839408  57.8140000
 116.3759408 113.1479408  52.1470000 115.9069408 113.8409408  51.6830000
 117.2419408 113.1299408  51.7400000  94.7479408 116.4299408  32.0810000
  94.8309408 115.7089408  32.7050000  93.9279408 116.8609408  32.3190000
  99.2759408 116.4629408  44.7030000  99.7309408 116.2569408  45.5190000
  99.1089408 117.4049408  44.7520000 113.3719408 119.3539408  46.9710000
 113.3079408 118.3989408  46.9860000 112.9949408 119.6059408  46.1290000
 106.2559408 113.4489408  52.4580000 105.9049408 113.5529408  51.5740000
 105.4959408 113.5559408  53.0320000 106.4109408 117.9309408  46.0400000
 106.7929408 118.4529408  46.7440000 106.9819408 118.0879408  45.2870000
 104.1419408 114.1589408  54.0840000 103.6309408 113.3779408  54.2940000
 103.5819408 114.6599408  53.4910000  95.5179408 110.8639408  30.6340000
  94.6129408 110.9029408  30.3240000  95.8689408 111.7369408  30.4600000
 113.3409408 115.3679408  56.2690000 113.8739408 115.7849408  55.5910000
 112.6439408 115.9989408  56.4470000 111.0999408 117.1969408  56.2780000
 110.7519408 117.3389408  55.3980000 111.3499408 118.0699408  56.5810000
 104.6979408 115.7839408  49.6430000 104.8279408 115.7939408  48.6940000
 104.6369408 114.8559408  49.8670000 101.6579408 119.4879408  55.1230000
 101.5199408 120.2759408  55.6490000 102.5939408 119.3049408  55.2060000
  95.6269408 115.5319408  52.0670000  96.1349408 115.9269408  51.3580000
  95.2669408 114.7309408  51.6870000 101.6979408 110.0789408  59.7730000
 100.8099408 109.8989408  59.4640000 102.0089408 109.2409408  60.1130000
 100.6369408 111.0749408  45.7480000 101.0509408 110.3259408  46.1760000
 100.8889408 110.9959408  44.8280000 104.6939408 117.6009408  59.4540000
 103.7959408 117.3609408  59.6810000 104.6029408 118.1929408  58.7070000
 104.6019408 118.8039408  53.5100000 105.1489408 118.3629408  54.1610000
 104.6489408 119.7299408  53.7450000 107.2359408 115.8399408  54.2300000
 107.9919408 115.7569408  53.6490000 106.6439408 115.1399408  53.9550000
 106.3829408 115.0279408  46.5230000 105.9809408 114.9789408  45.6560000
 106.6939408 115.9299408  46.5930000  98.7329408 115.2859408  32.7840000
  99.4529408 115.3559408  32.1580000  98.2929408 116.1349408  32.7390000
 101.3379408 118.9519408  57.8980000 100.3879408 118.9459408  57.7800000
 101.6909408 118.7969408  57.0220000  94.8689408 112.0059408  34.4930000
  95.4839408 112.3369408  33.8380000  95.3879408 111.9349408  35.2950000
  97.4129408 116.2019408  50.0570000  97.4249408 116.6489408  49.2110000
  98.2419408 116.4469408  50.4690000 102.1609408 111.0939408  57.1720000
 101.3539408 111.5889408  57.0280000 102.4389408 111.3399408  58.0540000
 111.6459408 115.8579408  49.2480000 111.8839408 115.4889408  48.3980000
 111.1379408 115.1669408  49.6750000 116.5009408 113.4099408  33.8900000
 117.2679408 113.2959408  33.3290000 116.1529408 114.2679408  33.6490000
 102.1069408 118.3369408  52.1520000 102.8629408 118.3479408  52.7390000
 101.9139408 119.2609408  51.9920000  96.9049408 119.6589408  54.4020000
  97.4049408 119.1249408  55.0190000  97.5369408 119.8999408  53.7250000
  98.8949408 111.6709408  49.8570000  98.2309408 111.5909408  49.1720000
  98.9859408 110.7849408  50.2080000 104.4529408 110.9099408  33.7780000
 104.3679408 110.7669408  32.8350000 105.0229408 110.2019408  34.0770000
  97.1399408 117.5469408  47.6840000  96.8289408 117.2759408  46.8200000
  96.5409408 118.2459408  47.9460000 105.7979408 118.7229408  33.2530000
 105.6619408 117.7969408  33.0530000 105.1299408 119.1799408  32.7420000
  98.0329408 119.1679408  40.5370000  98.6119408 118.8459408  41.2270000
  97.5109408 119.8489408  40.9610000  98.4229408 118.5869408  57.7970000
  98.0969408 118.0029408  57.1120000  98.0209408 118.2599408  58.6020000
 112.8249408 111.8459408  59.9020000 113.1099408 111.1609408  60.5080000
 113.3979408 111.7459408  59.1420000 118.2209408 113.3229408  44.8680000
 117.5639408 113.4529408  44.1850000 119.0359408 113.1649408  44.3900000
 109.5339408 107.2399408  56.6460000 110.2919408 106.8729408  56.1910000
 109.5379408 106.8119408  57.5020000 108.4659408 113.8039408  39.1880000
 108.8379408 114.6159408  38.8460000 108.9149408 113.1109408  38.7040000
  91.2429408 115.3819408  41.0890000  91.8839408 114.7989408  40.6820000
  90.4409408 114.8619408  41.1370000 115.4529408 113.0009408  36.3470000
 116.1639408 112.5919408  36.8410000 115.8259408 113.1649408  35.4810000
 117.0549408 110.3509408  43.5330000 116.2059408 110.0659408  43.1960000
 117.4329408 109.5649408  43.9270000 112.5319408 113.9129408  46.2690000
 113.3199408 113.8259408  46.8050000 112.8589408 114.0669408  45.3830000
 108.3429408 115.7469408  36.0430000 108.8659408 114.9999408  35.7510000
 107.5969408 115.7659408  35.4440000  94.7929408 115.8129408  35.2480000
  94.3529408 116.6369408  35.4600000  94.0799408 115.1949408  35.0880000
 113.2419408 113.1659408  40.4920000 112.9709408 113.7249408  39.7630000
 112.5509408 112.5069408  40.5570000 115.7379408 116.5139408  46.0000000
 115.5399408 115.6189408  45.7260000 114.8859408 116.8929408  46.2160000
 110.9789408 101.3509408  58.1040000 111.4849408 100.7389408  58.6380000
 111.4719408 101.4199408  57.2860000 117.6739408  97.2299408  58.4930000
 118.1929408  98.0039408  58.2730000 117.5139408  96.7999408  57.6530000
 119.8669408 112.4849408  53.7190000 120.5199408 112.0109408  53.2050000
 119.1229408 112.5889408  53.1250000 112.9719408 119.7709408  36.6800000
 112.3179408 120.1079408  37.2920000 113.6439408 119.3789408  37.2390000
 115.9349408 111.0989408  58.9360000 115.4299408 111.0179408  58.1280000
 116.4369408 111.9069408  58.8260000 106.8479408 119.6619408  40.6200000
 106.3209408 119.0759408  41.1630000 106.2789408 119.8849408  39.8840000
 112.0509408 117.8479408  51.3780000 112.2919408 117.3129408  50.6220000
 112.4079408 118.7149408  51.1820000 116.0049408 118.4509408  50.5770000
 115.3879408 117.8689408  50.1320000 115.6789408 119.3319408  50.3920000
 110.4669408 117.5979408  46.5020000 110.0149408 118.4079408  46.7400000
 109.9129408 116.9009408  46.8520000 107.1799408 114.4859408  41.5940000
 107.1339408 114.0919408  40.7230000 107.8769408 115.1389408  41.5260000
 113.0409408 115.6989408  37.7480000 112.2169408 116.1149408  37.4950000
 113.0589408 114.8799408  37.2530000 117.1119408 117.8559408  44.3000000
 116.6299408 117.3489408  44.9530000 118.0099408 117.8809408  44.6300000
 112.8469408 104.3839408  59.2860000 113.0729408 105.2939408  59.4810000
 112.3399408 104.4319408  58.4760000 106.7859408 108.4209408  31.6810000
 106.7219408 107.5299408  31.3370000 107.4129408 108.8559408  31.1040000
  98.5139408 108.9249408  34.6940000  98.4449408 107.9949408  34.9100000
  97.8739408 109.0569408  33.9950000 108.5539408 108.9259408  54.6820000
 108.7939408 108.2999408  55.3660000 109.3529408 109.4279408  54.5250000
 109.4299408 119.0179408  30.8690000 110.3869408 119.0099408  30.8630000
 109.1899408 118.4979408  31.6360000 109.5519408 103.4549408  59.3200000
 109.6209408 102.9329408  60.1200000 109.9389408 102.9039408  58.6400000
 113.8139408 106.7889408  59.7140000 113.7769408 107.3819408  60.4640000
 114.6549408 106.9789408  59.2980000 114.3839408 106.4509408  56.5200000
 114.4989408 107.3369408  56.1780000 114.0379408 106.5779408  57.4040000
 118.0309408 115.7699408  30.2010000 117.6519408 116.3839408  29.5710000
 118.7909408 116.2309408  30.5560000 118.7599408 118.1839408  33.0480000
 118.8759408 117.2849408  33.3560000 119.4779408 118.3219408  32.4310000
 112.4329408 114.4709408  30.8190000 111.6569408 114.3989408  31.3750000
 112.5059408 113.6149408  30.3970000 109.5569408 109.2589408  34.7920000
 109.8279408 108.5009408  34.2750000 109.5719408 109.9889408  34.1730000
 112.1869408  97.3489408  53.2340000 112.6329408  97.2299408  52.3960000
 111.9849408  96.4599408  53.5270000 113.0549408 116.8219408  45.9560000
 112.1179408 116.8199408  46.1500000 113.1779408 116.0819408  45.3610000
 116.7119408 118.8939408  31.2240000 117.5319408 118.5429408  31.5710000
 116.3319408 119.3829408  31.9540000 114.2559408 113.5429408  48.3680000
 114.2759408 112.7569408  48.9150000 115.1489408 113.6239408  48.0320000
 117.4089408 118.0439408  58.3580000 116.8659408 118.5749408  58.9420000
 118.0689408 118.6529408  58.0260000 111.5639408 105.6829408  55.4200000
 112.2419408 105.5029408  56.0710000 111.3869408 104.8329408  55.0160000
 119.8499408  92.5939408  58.7080000 119.3119408  92.9239408  59.4270000
 119.7199408  93.2259408  58.0010000 110.1359408 106.2199408  58.9780000
 109.9219408 105.3049408  58.7990000 110.5769408 106.2019408  59.8280000
 111.9269408 108.4589408  57.4240000 111.6859408 109.2179408  57.9550000
 111.2059408 107.8409408  57.5460000 110.6599408 110.6539408  58.5530000
 110.8069408 110.9329408  59.4560000 110.5649408 111.4699408  58.0610000
 116.9689408 116.1229408  52.1750000 117.8909408 116.2139408  52.4190000
 116.8059408 116.8519408  51.5770000 111.3509408 113.5839408  57.1550000
 112.0519408 114.1379408  56.8110000 110.8199408 114.1729408  57.6900000
 118.1879408 102.5169408  59.3490000 119.0379408 102.9559408  59.3450000
 118.2049408 101.9679408  60.1330000  92.4339408 119.4479408  51.3220000
  91.7669408 118.7629408  51.3040000  92.1439408 120.0829408  50.6670000
 118.6129408 110.5529408  50.3810000 119.2029408 110.8629408  51.0670000
 118.5069408 111.3039408  49.7970000 108.5159408 115.7009408  30.7170000
 108.6129408 116.6029408  31.0230000 109.1969408 115.5999408  30.0510000
 114.5779408 116.1839408  49.7680000 115.3119408 115.7339408  49.3490000
 113.8019408 115.8429408  49.3220000 111.9709408 119.7309408  34.2900000
 111.4919408 120.5529408  34.3860000 112.2929408 119.5359408  35.1700000
 109.7779408 113.9979408  43.5600000 110.2779408 114.1409408  42.7560000
 110.3799408 113.5269408  44.1360000 110.3289408 114.1079408  32.8240000
 109.6049408 114.5969408  32.4350000 110.2499408 114.2699408  33.7640000
  91.9339408 119.6879408  48.6420000  92.2469408 118.7839408  48.6550000
  91.5109408 119.7829408  47.7880000  92.0799408 118.3339408  33.5080000
  91.6479408 118.7749408  32.7770000  92.4669408 119.0439408  34.0210000
 115.5019408 115.3549408  58.7860000 116.3499408 114.9159408  58.7100000
 115.0439408 115.1329408  57.9750000 109.9319408 113.5469408  35.4520000
 109.4589408 112.7149408  35.4690000 110.8459408 113.3059408  35.6030000
 113.0439408 111.6259408  43.4910000 112.5689408 111.6099408  42.6600000
 113.9519408 111.4399408  43.2520000 111.5259408 117.0239408  33.9340000
 111.8329408 116.7029408  33.0860000 111.8009408 117.9409408  33.9570000
 112.5659408 113.1829408  36.2490000 112.5139408 112.3989408  36.7960000
 113.4839408 113.2299408  35.9820000 114.1119408 111.8259408  33.7350000
 114.7569408 112.4489408  34.0690000 114.4369408 111.5849408  32.8680000
 115.6729408 110.8899408  53.2500000 115.9379408 111.6929408  52.8020000
 115.0279408 110.4909408  52.6670000 111.3089408 111.2979408  40.9070000
 110.3719408 111.3809408  41.0840000 111.3559408 110.9219408  40.0280000
 109.9409408 115.9629408  58.3800000 109.0549408 116.3189408  58.3170000
 110.3819408 116.2749408  57.5900000 109.7129408 111.5399408  37.5910000
 109.1179408 110.8719408  37.2500000 110.5109408 111.0599408  37.8100000
 117.4709408 115.8359408  36.5070000 117.7579408 114.9329408  36.6370000
 117.3959408 115.9299408  35.5570000 117.1539408 115.2229408  48.8610000
 117.2309408 114.5909408  48.1470000 117.9429408 115.7599408  48.7930000
 107.0249408 112.7099408  47.6690000 106.8809408 112.0149408  47.0260000
 106.7759408 113.5139408  47.2140000 114.6279408 119.7129408  33.2650000
 113.6809408 119.5999408  33.3410000 114.9819408 119.3039408  34.0550000
 114.1549408 118.4689408  38.6710000 114.9869408 117.9959408  38.6860000
 113.5239408 117.8559408  39.0480000 117.6299408 118.3429408  37.5860000
 117.5669408 117.3909408  37.5050000 117.5549408 118.5079408  38.5260000
 116.7179408 113.2369408  47.1170000 117.0469408 113.5299408  46.2670000
 116.4409408 112.3329408  46.9690000 118.6429408 113.4169408  32.1320000
 119.5469408 113.7219408  32.2000000 118.2299408 114.0239408  31.5180000
 108.1019408 119.3339408  43.8490000 108.8249408 119.9569408  43.9170000
 108.5209408 118.5029408  43.6270000 119.7119408 117.0349408  48.1520000
 119.5509408 117.4989408  47.3300000 119.2639408 117.5589408  48.8150000
 115.3029408 116.0099408  41.7730000 115.0519408 115.5969408  40.9470000
 114.6769408 116.7259408  41.8830000 105.4609408 113.4619408  33.0360000
 105.9439408 113.2799408  32.2300000 105.3659408 112.6069408  33.4560000
 103.5109408 117.9189408  45.3630000 104.4469408 117.8499408  45.5500000
 103.2639408 117.0499408  45.0470000 115.1669408 115.1589408  31.8110000
 114.2559408 114.8679408  31.8270000 115.3879408 115.2049408  30.8810000
 111.1539408 117.1659408  36.5480000 111.4189408 116.9389408  35.6570000
 111.5359408 118.0299408  36.7000000 107.0539408 116.8609408  58.2050000
 106.3929408 117.1089408  58.8510000 106.5519408 116.4939408  57.4770000
  92.8799408 117.4629408  42.2670000  92.0239408 117.0379408  42.2150000
  93.2679408 117.3299408  41.4030000 118.6919408 109.2009408  33.8620000
 119.5599408 108.8229408  33.7170000 118.1619408 108.8679408  33.1380000
  90.1709408 115.8719408  33.6420000  90.6029408 115.3299408  32.9810000
  90.8439408 116.4929408  33.9200000 111.9069408 110.2649408  38.2860000
 111.7919408 109.3209408  38.3890000 112.4119408 110.3589408  37.4790000
 110.8209408 115.7819408  41.5460000 110.6039408 115.9449408  40.6280000
 110.7959408 116.6459408  41.9560000 108.4929408 110.8929408  41.3400000
 108.2899408 110.2629408  40.6490000 107.8709408 111.6069408  41.2050000
 117.5929408 118.9229408  40.4380000 117.4519408 119.3709408  41.2720000
 118.5019408 118.6269408  40.4740000  99.8979408 118.3239408  47.5680000
 100.5479408 117.6229408  47.5210000  99.0609408 117.8869408  47.4100000
 114.9399408 118.5519408  42.8940000 115.6679408 118.0659408  43.2810000
 115.3499408 119.3119408  42.4820000 116.2609408 110.5759408  46.5330000
 115.9599408 109.7359408  46.1870000 117.1519408 110.4039408  46.8380000
  90.9209408 119.9589408  39.9480000  91.4189408 119.3979408  39.3520000
  90.0779408 120.0829408  39.5120000 110.1059408 116.3139408  38.9570000
 110.3829408 116.3689408  38.0430000 109.8789408 117.2129408  39.1940000
 113.6379408 119.1839408  57.3740000 113.8629408 118.6559408  58.1400000
 113.7149408 120.0889408  57.6760000 111.2849408 111.4409408  33.2030000
 112.1909408 111.6019408  33.4660000 110.9289408 112.3109408  33.0260000
 109.0939408 115.2559408  47.6310000 108.8449408 115.5209408  48.5160000
 108.5189408 114.5169408  47.4310000 114.6889408 116.4959408  53.9890000
 115.4609408 116.4079408  53.4300000 114.0209408 115.9579408  53.5630000
 109.7889408 117.3129408  53.2930000 110.5389408 117.1429408  52.7230000
 109.6029408 118.2449408  53.1720000 116.0789408 118.6559408  35.3270000
 116.5179408 118.9459408  36.1270000 116.5309408 117.8469408  35.0860000
 111.9989408 117.5469408  31.0180000 112.9239408 117.6119408  30.7810000
 111.7279408 116.6889408  30.6910000 107.6129408 110.7449408  33.2240000
 107.4149408 109.8939408  32.8320000 107.7729408 111.3209408  32.4770000
 118.7029408 113.2359408  50.3090000 119.5569408 113.6369408  50.1500000
 118.0819408 113.8059408  49.8540000 109.1839408 112.3919408  49.3730000
 108.8759408 112.0519408  50.2130000 108.3959408 112.4469408  48.8330000
 118.9259408 109.3549408  59.1130000 118.4939408 109.0299408  58.3230000
 119.7449408 108.8629408  59.1590000 112.4529408 112.8319408  54.3870000
 113.2899408 113.2969408  54.4070000 111.9209408 113.3219408  53.7600000
 104.6139408 114.3099408  58.8680000 103.7559408 114.7329408  58.8890000
 105.0889408 114.7639408  58.1720000 116.4009408 100.1289408  59.6700000
 116.3809408 100.6799408  60.4520000 116.2529408 100.7369408  58.9450000
 119.0999408 116.4319408  55.9860000 118.5239408 116.4859408  56.7480000
 118.5919408 115.9469408  55.3350000 117.4289408 114.6289408  54.5640000
 116.6139408 114.5409408  54.0710000 117.3679408 113.9629408  55.2490000
 116.6279408  95.1689408  60.1560000 115.8039408  94.7719408  59.8740000
 116.6229408  96.0389408  59.7570000  92.8429408 115.7119408  53.1490000
  93.7689408 115.4969408  53.0340000  92.8479408 116.5679408  53.5780000
 113.8769408 111.7659408  57.1800000 114.5629408 112.2469408  56.7180000
 113.0929408 112.3049408  57.0720000 116.0639408 107.5379408  58.8710000
 116.7539408 106.9079408  58.6660000 116.4249408 108.3839408  58.6060000
 119.9059408 118.0329408  51.8660000 119.3759408 118.3819408  52.5830000
 120.0419408 117.1129408  52.0930000 117.5559408 113.3009408  58.4550000
 118.1949408 113.8009408  58.9620000 118.0589408 112.9369408  57.7270000
 117.8099408 107.9179408  56.6380000 117.3599408 108.3039408  55.8870000
 117.8709408 106.9859408  56.4280000 110.8229408 110.4389408  54.5460000
 111.4419408 111.1659408  54.6110000 110.8099408 110.2179408  53.6140000
 114.0979408 102.2559408  59.3850000 113.7049408 103.1289408  59.3770000
 113.3609408 101.6629408  59.5350000 119.0779408 112.0099408  56.4940000
 119.7929408 111.5059408  56.8830000 119.4689408 112.4279408  55.7270000
 116.4579408 112.1029408  55.8250000 117.2999408 111.6859408  56.0080000
 116.1359408 111.6579408  55.0400000 114.2699408 119.2149408  54.6630000
 114.2869408 118.9489408  55.5820000 114.4699408 118.4149408  54.1780000
 109.3969408 112.8279408  55.2380000 109.5079408 112.1059408  54.6190000
 110.1119408 112.7199408  55.8640000 119.0199408 118.8129408  54.3330000
 119.8619408 119.1639408  54.6250000 118.8459408 118.0819408  54.9260000
 116.1579408 116.4039408  33.9090000 115.6669408 117.2129408  34.0520000
 115.8099408 116.0549408  33.0890000 107.0399408 118.4119408  54.8180000
 107.5809408 118.5059408  55.6020000 107.1749408 117.5059408  54.5410000
 113.6199408 114.9529408  52.0760000 112.8519408 114.5989408  51.6270000
 114.1499408 115.3379408  51.3780000 111.2529408 113.5169408  50.7880000
 110.5179408 113.0819408  50.3570000 110.8559408 113.9929408  51.5170000
  93.1729408 119.6979408  53.8650000  92.8949408 119.4999408  52.9710000
  93.6089408 120.5479408  53.7990000 108.5739408 116.5729408  49.9790000
 109.3969408 117.0059408  50.2050000 107.9349408 116.9379408  50.5900000
 118.8059408 106.1259408  59.0390000 119.4149408 106.8549408  58.9240000
 119.3669408 105.3549408  59.1220000 111.0189408 111.9559408  47.3460000
 110.6409408 112.0609408  48.2200000 111.4569408 112.7889408  47.1720000
 114.5659408 117.9129408  59.5880000 114.9279408 117.0679408  59.3220000
 115.1819408 118.2429408  60.2420000 106.0279408 119.2599408  48.5900000
 105.0909408 119.1729408  48.4130000 106.1359408 118.9249408  49.4800000
 110.3859408 114.2079408  53.2040000 110.0829408 115.1069408  53.3300000
 109.8389408 113.6859408  53.7910000 100.0009408 116.2329408  51.9690000
 100.8279408 115.7619408  52.0740000 100.2609408 117.1449408  51.8330000
 103.1139408 119.2469408  48.1040000 103.4209408 118.6579408  47.4150000
 102.3449408 119.6749408  47.7280000  94.1209408 103.6749408  73.7610000
  94.0209408 104.4239408  74.3480000  94.6659408 103.0579408  74.2490000
 109.4019408 107.0039408  63.4620000 109.3069408 106.1259408  63.8320000
 108.6369408 107.1089408  62.8970000  96.9639408 117.2739408  64.1330000
  96.2589408 116.7169408  64.4630000  96.9889408 118.0129408  64.7410000
 111.1249408  91.1489408  81.7350000 110.9649408  90.2999408  81.3230000
 111.6349408  91.6379408  81.0890000  96.7109408 108.7099408  81.4700000
  96.3839408 109.3649408  82.0880000  97.6529408 108.8729408  81.4250000
 101.8849408 101.9679408  72.0810000 101.2899408 101.2449408  72.2800000
 102.7569408 101.5759408  72.1090000  95.8789408  96.9689408  68.7010000
  95.4139408  96.1719408  68.4480000  95.9029408  97.4959408  67.9020000
 105.1049408 107.8279408  75.6050000 104.2939408 107.6459408  75.1300000
 105.7899408 107.7719408  74.9380000 108.8559408 108.6129408  69.2840000
 108.4689408 108.1719408  70.0410000 108.1489408 109.1559408  68.9360000
  99.0639408  98.6819408  77.8260000  98.4579408  98.2489408  78.4280000
  99.3939408  97.9759408  77.2700000 107.4669408 105.2269408  77.9080000
 107.9479408 105.1439408  78.7320000 108.1319408 105.1079408  77.2300000
 112.0799408  99.5039408  66.3360000 111.9909408  99.7379408  65.4120000
 112.7389408 100.1109408  66.6740000  95.6149408 103.6859408  68.9500000
  95.7649408 103.7169408  69.8950000  94.7539408 104.0859408  68.8300000
 119.3079408 108.9599408  75.2020000 119.6479408 109.5329408  75.8900000
 119.8979408 109.0979408  74.4610000 102.9309408 115.5519408  74.1980000
 103.8639408 115.3599408  74.1090000 102.5239408 115.1209408  73.4470000
 118.0369408  95.5629408  65.5490000 117.0969408  95.6829408  65.4130000
 118.2159408  94.6789408  65.2300000 108.3629408 111.3589408  60.6810000
 107.7089408 112.0489408  60.5670000 108.2789408 110.8169408  59.8970000
 100.6849408 105.9839408  66.6650000 101.1339408 106.8249408  66.7490000
  99.8769408 106.0929408  67.1670000 118.7999408  99.9389408  75.7730000
 117.8609408  99.9999408  75.5990000 118.8569408  99.5959408  76.6650000
 107.9779408 104.4559408  70.6650000 107.2519408 104.3639408  70.0480000
 107.7039408 103.9559408  71.4340000 106.9329408 112.0279408  73.3670000
 107.2779408 112.9039408  73.1980000 107.6629408 111.4399408  73.1730000
 101.7599408 113.1179408  68.5430000 101.6899408 113.8819408  67.9720000
 102.0759408 112.4179408  67.9710000 104.5309408 116.0489408  61.8910000
 105.1549408 116.0429408  61.1650000 104.9719408 115.5639408  62.5890000
  91.5889408  97.8679408  65.1380000  91.9129408  97.0799408  64.7030000
  92.3749408  98.2939408  65.4810000  94.3779408  91.6949408  76.6380000
  93.4469408  91.8319408  76.4640000  94.7679408  91.5709408  75.7730000
 101.0189408  92.1809408  78.1460000 100.7569408  93.1019408  78.1390000
 101.6919408  92.1279408  78.8240000 105.1549408  90.6799408  68.8720000
 104.7649408  91.4279408  68.4200000 105.0899408  89.9599408  68.2450000
 105.4189408 104.0349408  73.0950000 104.8099408 103.9809408  73.8320000
 104.8679408 104.2559408  72.3440000  96.8749408 116.9259408  69.7580000
  97.0919408 117.8089408  70.0560000  97.0169408 116.9499408  68.8120000
 118.5349408 105.5709408  67.6430000 118.4489408 106.1489408  66.8850000
 118.1879408 106.0809408  68.3750000  98.3539408  96.3839408  63.5020000
  99.0179408  96.9059408  63.0520000  97.9879408  96.9769408  64.1590000
 114.3849408  99.4109408  77.3650000 114.7209408  98.5179408  77.2950000
 114.2909408  99.5589408  78.3060000  97.7939408 103.7699408  67.0920000
  97.1589408 103.5089408  67.7590000  98.3649408 103.0079408  66.9930000
  99.0859408  92.8069408  72.3010000  99.2659408  93.2629408  71.4790000
  99.7729408  93.1059408  72.8980000 105.8509408 103.9929408  69.0110000
 105.1649408 104.5659408  68.6690000 105.4019408 103.1709408  69.2080000
  97.6489408 107.3009408  72.5020000  97.1329408 107.8939408  73.0490000
  97.6139408 106.4609408  72.9600000 111.2289408 110.5009408  74.9470000
 110.8759408 111.0379408  75.6570000 111.9479408 111.0209408  74.5870000
 101.1919408 116.2969408  61.5580000 101.2509408 117.2469408  61.6600000
 101.6389408 115.9449408  62.3270000  94.6869408  93.6109408  72.3470000
  93.8339408  93.9499408  72.0730000  95.2309408  94.3909408  72.4540000
 101.3659408 110.8169408  72.9800000 101.3449408 111.5859408  72.4090000
 102.2869408 110.5579408  72.9990000 105.5709408  94.5019408  83.2080000
 106.1229408  95.1429408  82.7600000 105.2669408  93.9189408  82.5130000
 104.5329408 109.5259408  67.8070000 104.0209408 108.9609408  68.3850000
 103.9069408 110.1799408  67.4950000  94.9169408 104.0799408  66.0540000
  95.2429408 103.2809408  66.4690000  94.3959408 104.5079408  66.7330000
 101.9419408  94.9309408  78.4310000 102.8109408  95.3169408  78.3240000
 101.7659408  94.9919408  79.3700000  99.3909408  95.9979408  73.5600000
  98.4679408  95.8209408  73.7410000  99.5449408  95.6099408  72.6990000
  96.4589408 109.0469408  74.2110000  95.7969408 108.9559408  74.8960000
  97.0899408 109.6709408  74.5690000 102.7269408  94.7419408  73.0350000
 103.5559408  94.2759408  72.9230000 102.3699408  94.4009408  73.8560000
 100.9189408 105.5149408  71.9010000 100.0709408 105.1079408  71.7250000
 100.7289408 106.4519408  71.9560000 101.2779408  98.6519408  69.3500000
 101.3409408  97.9429408  69.9910000 100.6729408  99.2789408  69.7440000
  97.3769408 118.8119408  61.6800000  96.6809408 118.2869408  61.2850000
  97.2869408 118.6599408  62.6210000 105.6899408 108.6069408  64.5490000
 105.8669408 108.6029408  63.6090000 106.2479408 107.9129408  64.9010000
  99.4119408  98.7209408  66.5640000  99.9009408  98.4549408  67.3430000
 100.0189408  99.2819408  66.0810000 100.9679408 108.3959408  75.9660000
 101.6029408 107.8829408  75.4660000 100.1389408 107.9329408  75.8490000
  99.0729408 100.0809408  69.9790000  99.3089408 100.3209408  70.8750000
  98.1399408  99.8699408  70.0250000  98.6629408 113.0849408  65.7270000
  99.1639408 112.7029408  66.4480000  99.3049408 113.2099408  65.0280000
 102.1909408  93.0269408  66.6490000 102.5829408  93.5069408  67.3790000
 102.8259408  92.3399408  66.4440000  92.7639408 100.3209408  75.9390000
  92.1979408 100.7929408  75.3280000  92.1579408  99.8679408  76.5260000
  93.7929408  95.9289408  78.5460000  94.5359408  95.3939408  78.2680000
  93.0419408  95.5539408  78.0850000  97.2649408  95.4869408  70.7700000
  96.6499408  96.0649408  70.3180000  97.6409408  94.9459408  70.0760000
  94.4899408  94.3149408  68.6110000  93.8189408  93.6769408  68.8510000
  94.7519408  94.0669408  67.7250000 108.2059408 101.1969408  71.0920000
 108.7899408 101.1579408  70.3350000 107.3289408 101.0939408  70.7250000
  93.9959408 100.0319408  79.2360000  94.7059408  99.4889408  78.8920000
  94.1359408 100.8909408  78.8370000  96.1979408 118.7859408  67.3920000
  95.6229408 119.3219408  67.9370000  96.9389408 119.3569408  67.1890000
 105.6389408  96.6119408  68.9870000 105.6199408  96.6119408  69.9440000
 106.5409408  96.8459408  68.7660000 106.1629408 110.3279408  69.8410000
 105.8969408 110.1039408  68.9500000 105.7949408 109.6309408  70.3840000
 108.8369408 109.6889408  73.6890000 109.6529408 109.8079408  74.1740000
 109.0429408 109.9709408  72.7980000  97.3569408 104.9479408  74.1060000
  96.7409408 104.6609408  74.7800000  97.7119408 104.1349408  73.7450000
 112.1589408 101.9809408  68.6940000 112.2029408 102.9319408  68.6020000
 112.8179408 101.6489408  68.0840000  91.5759408  91.8369408  72.3790000
  91.6699408  91.3979408  71.5340000  91.7809408  92.7539408  72.1980000
  99.7979408 103.5629408  80.7020000  99.9119408 102.6129408  80.6900000
 100.2249408 103.8659408  79.9000000 102.6309408 103.1459408  74.3340000
 102.2629408 103.3379408  73.4710000 102.9819408 102.2589408  74.2530000
  94.7069408 105.4199408  83.1280000  94.5639408 105.8999408  82.3120000
  94.9709408 106.0909408  83.7570000  92.9149408 106.4549408  74.3630000
  93.5279408 107.1049408  74.7050000  92.2449408 106.3749408  75.0420000
  99.9729408  91.6209408  69.1660000 100.8859408  91.7839408  68.9290000
 100.0159408  91.2549408  70.0490000 102.5159408  99.3919408  67.0440000
 102.9239408  98.9559408  66.2950000 102.6179408  98.7729408  67.7670000
 110.6819408 104.5549408  70.8580000 110.4699408 104.9719408  71.6930000
 109.8309408 104.3559408  70.4670000  95.0659408 102.1979408  78.1450000
  95.8319408 101.7159408  77.8330000  94.6889408 102.5859408  77.3550000
  94.4699408  96.9909408  81.0950000  94.3759408  96.7169408  80.1820000
  94.4599408  97.9469408  81.0610000 106.7989408  98.8369408  81.9130000
 106.1259408  98.2629408  81.5470000 107.3839408  98.2479408  82.3890000
 107.3339408  91.3149408  77.3720000 107.1459408  92.1649408  77.7700000
 106.5919408  90.7639408  77.6200000  94.3569408 114.6489408  73.1330000
  95.1819408 115.0809408  72.9100000  93.8739408 115.2999408  73.6410000
  96.0859408 104.8579408  71.4430000  95.4669408 105.3769408  70.9300000
  95.9959408 105.1919408  72.3360000 103.4409408 106.1729408  68.5040000
 103.3789408 105.9409408  67.5780000 102.7799408 106.8539408  68.6260000
  98.5019408  94.1379408  68.6120000  98.8629408  94.4539408  67.7840000
  98.9809408  93.3279408  68.7890000  99.2219408 119.9579408  79.5540000
  99.1209408 119.3189408  78.8490000  99.7729408 120.6449408  79.1780000
  95.8979408 116.1729408  75.7840000  94.9769408 116.4009408  75.6590000
  96.2559408 116.1269408  74.8980000  94.1719408  98.0399408  66.5580000
  93.5999408  98.3309408  67.2680000  94.3229408  98.8259408  66.0330000
 110.9309408  98.1219408  77.8530000 110.4899408  98.4399408  78.6410000
 111.2959408  98.9089408  77.4480000  93.5469408 119.1949408  74.3880000
  93.4529408 118.7309408  73.5560000  94.0779408 119.9629408  74.1760000
  99.7719408  92.8839408  65.6410000 100.6209408  92.7349408  66.0590000
  99.7999408  92.3549408  64.8440000  99.0259408 106.3989408  75.6100000
  98.7289408 106.0099408  76.4320000  98.4029408 106.0809408  74.9560000
 114.9449408 100.7089408  82.4340000 114.4059408 100.1399408  82.9830000
 114.3479408 101.3989408  82.1430000 102.9919408  96.0789408  80.9050000
 103.2669408  96.9929408  80.8340000 103.4549408  95.7489408  81.6750000
 109.7759408 107.0209408  66.7930000 109.6259408 107.7959408  66.2530000
 109.1299408 107.0889408  67.4960000 114.9269408 105.3199408  69.5870000
 115.3159408 104.5869408  70.0650000 115.3279408 105.2809408  68.7190000
  95.7419408 101.5499408  72.2860000  95.5099408 101.7689408  73.1890000
  96.5849408 101.9799408  72.1450000 119.0709408  92.3679408  73.5800000
 119.1899408  92.7229408  74.4610000 119.9599408  92.2269408  73.2550000
 105.3469408  97.8619408  73.5700000 105.5059408  97.1419408  72.9600000
 106.2199408  98.1279408  73.8590000 103.9419408 117.7469408  71.2050000
 103.6119408 117.6369408  72.0970000 103.2129408 118.1429408  70.7270000
  92.4759408 103.4329408  71.5170000  92.9669408 103.3179408  72.3310000
  92.3929408 104.3819408  71.4200000  94.0809408 100.9719408  70.1910000
  93.3579408 101.5829408  70.3280000  94.6869408 101.1519408  70.9110000
  92.4699408  92.2689408  69.4860000  91.9209408  93.0069408  69.2190000
  91.8819408  91.5139408  69.4670000  93.0199408 106.0899408  71.5960000
  92.9749408 106.1599408  72.5500000  93.1089408 106.9939408  71.2930000
 102.5739408 104.1909408  76.7410000 102.6879408 103.7449408  75.9010000
 103.3929408 104.6689408  76.8720000  99.4949408 105.9309408  63.8740000
  99.7659408 105.7989408  64.7830000  99.9059408 106.7569408  63.6190000
  98.0449408 108.2839408  77.2700000  97.8129408 107.5769408  77.8720000
  98.2419408 107.8409408  76.4450000  98.0199408  91.0509408  74.0630000
  98.1869408  91.8039408  73.4960000  98.5849408  91.1939408  74.8240000
 102.3299408 113.4389408  64.0320000 101.5709408 112.9229408  63.7610000
 103.0749408 113.0059408  63.6160000  93.8559408 118.2669408  66.1100000
  93.5329408 119.1219408  65.8250000  94.7399408 118.4389408  66.4320000
  92.1229408 112.1309408  77.8600000  92.8419408 111.8089408  77.3180000
  92.3069408 113.0629408  77.9750000 108.9909408  98.3469408  65.9690000
 109.9089408  98.3779408  66.2400000 108.8449408  97.4349408  65.7200000
  95.8029408 106.0779408  64.3120000  96.5949408 105.6419408  63.9980000
  95.6179408 105.6609408  65.1540000 103.6209408 105.0579408  71.2560000
 102.8359408 105.3699408  71.7060000 103.5009408 105.3309408  70.3470000
  96.7349408 100.4089408  76.9120000  97.6709408 100.2119408  76.8740000
  96.3309408  99.5979408  77.2210000  99.1019408 109.7299408  82.1000000
  99.8669408 109.3959408  81.6300000  99.3469408 110.6199408  82.3550000
 103.4439408  90.5639408  65.1250000 104.2609408  90.5429408  65.6220000
 103.7179408  90.5099408  64.2090000  98.1309408 107.3219408  69.6840000
  98.1119408 108.2399408  69.4110000  97.9969408 107.3509408  70.6310000
 104.0549408 110.7059408  79.8650000 103.1819408 110.5199408  80.2090000
 104.1139408 110.1809408  79.0660000  98.7819408 104.8269408  70.5120000
  97.8989408 104.6719408  70.8490000  98.7299408 105.6859408  70.0920000
 115.7759408 105.5769408  75.5950000 116.5949408 105.4519408  75.1160000
 115.8309408 104.9639408  76.3280000 104.7319408  95.0299408  66.7360000
 105.2879408  94.2539408  66.6670000 105.2679408  95.6689408  67.2060000
 104.8019408 105.4929408  76.8610000 104.9129408 106.3009408  76.3600000
 105.6729408 105.3059408  77.2110000 117.4529408 102.4809408  72.6510000
 116.9679408 101.6609408  72.7380000 118.3159408 102.2169408  72.3320000
 109.8039408 100.9529408  68.8190000 110.7069408 101.2619408  68.7410000
 109.2889408 101.5889408  68.3220000 103.6759408 102.0399408  68.3110000
 102.9579408 102.4469408  68.7970000 103.3909408 101.1369408  68.1740000
  93.1979408 105.2869408  67.9950000  92.5999408 105.4139408  67.2590000
  92.7259408 104.7069408  68.5910000 103.4919408 100.2479408  75.4210000
 104.1179408 100.9619408  75.5410000 104.0109408  99.5349408  75.0460000
 118.8019408  96.7519408  75.1170000 118.5949408  96.3399408  74.2790000
 117.9779408  97.1509408  75.3980000  96.3509408 102.5299408  80.8020000
  95.7639408 102.6359408  80.0530000  96.8079408 103.3679408  80.8690000
  92.1939408  92.4329408  75.0200000  91.9859408  92.0149408  74.1840000
  92.7589408  93.1699408  74.7850000 110.3539408  91.1919408  74.3940000
 111.2449408  91.0649408  74.0680000 110.3279408  92.1089408  74.6690000
 102.9529408 108.1909408  64.7110000 102.8259408 108.4779408  65.6150000
 103.8859408 108.3269408  64.5450000 101.2079408 103.2309408  69.6310000
 101.4929408 103.1859408  70.5430000 100.4689408 103.8389408  69.6400000
  95.9609408  91.2959408  70.8390000  96.7089408  91.8909408  70.8830000
  95.2019408  91.8499408  71.0230000 104.0369408  99.3019408  70.0320000
 103.0859408  99.2279408  69.9500000 104.3769408  98.5189408  69.5980000
 103.8409408 105.9929408  79.9150000 103.3829408 105.6059408  79.1690000
 104.1529408 106.8389408  79.5910000 107.9259408 103.8949408  74.1400000
 106.9729408 103.9149408  74.2200000 108.2449408 104.1439408  75.0080000
  96.0819408 101.7559408  63.1260000  95.2619408 102.2489408  63.0890000
  96.7199408 102.3779408  63.4750000 110.7849408 101.9599408  77.6010000
 111.3309408 101.2469408  77.2700000 110.9109408 102.6709408  76.9720000
 106.0959408 100.7469408  69.5820000 105.3069408 100.3579408  69.9590000
 106.3329408 100.1619408  68.8630000 100.6029408 108.1769408  72.3180000
  99.6709408 108.0139408  72.4610000 100.6839408 109.1309408  72.3230000
 106.8019408 110.5669408  75.9690000 107.5409408 109.9729408  75.8380000
 106.7199408 111.0359408  75.1380000  96.3819408  93.8779408  66.2780000
  96.8239408  94.1609408  67.0780000  96.7769408  94.4079408  65.5850000
 107.8219408 100.6709408  84.7140000 107.0509408 100.2079408  84.3860000
 108.5589408 100.2549408  84.2680000 110.9929408 106.8169408  61.4860000
 111.3499408 107.6909408  61.3270000 110.4049408 106.9299408  62.2320000
 118.4819408 100.9349408  69.6410000 118.8959408 101.1749408  70.4700000
 118.9019408 101.4979408  68.9910000 104.8989408 116.5689408  68.8670000
 104.8359408 116.8249408  69.7880000 104.8469408 115.6129408  68.8800000
  96.4319408  99.2409408  69.6680000  95.6539408  99.7959408  69.6110000
  96.1929408  98.4429408  69.1960000 104.5639408 101.3319408  72.5050000
 105.3129408 101.9219408  72.4160000 104.8419408 100.5249408  72.0710000
  95.8949408 109.3489408  70.4970000  95.2319408 109.5939408  71.1420000
  95.4229408 108.8129408  69.8600000 100.5329408  94.8369408  71.0850000
 100.4469408  95.5079408  70.4070000 101.3799408  95.0149408  71.4930000
  98.3729408 113.4639408  73.1860000  99.1639408 113.9339408  72.9220000
  97.6539408 113.9979408  72.8490000  98.0019408 103.8009408  64.2870000
  98.6839408 104.4149408  64.0160000  97.9259408 103.9279408  65.2330000
  98.5919408 110.0079408  71.6570000  97.6919408 109.6829408  71.6220000
  98.5009408 110.9549408  71.7650000  98.5059408 119.5499408  64.7200000
  99.2599408 119.8159408  64.1930000  98.6619408 119.9459408  65.5770000
  94.0379408 117.2559408  69.9530000  94.9729408 117.0479408  69.9550000
  93.9999408 118.1869408  69.7350000 107.8569408  95.7969408  66.3200000
 108.7739408  95.6119408  66.1180000 107.3679408  95.4069408  65.5960000
 114.8209408  97.4299408  68.6100000 114.9309408  96.7309408  67.9650000
 115.4989408  98.0679408  68.3900000  99.6499408 101.8419408  67.8760000
 100.4039408 102.2779408  68.2730000  99.2779408 101.3139408  68.5820000
 107.8409408 101.3329408  81.0730000 107.5779408 100.4969408  81.4570000
 107.0239408 101.8229408  80.9800000 106.4069408  93.6289408  79.0480000
 107.1099408  94.2789408  79.0450000 106.1969408  93.5069408  79.9740000
 101.6449408  98.1269408  83.6070000 101.9199408  97.4939408  84.2710000
 101.9309408  98.9729408  83.9510000 108.3389408  98.6359408  77.0160000
 108.1949408  99.4509408  77.4970000 109.2549408  98.4159408  77.1850000
 103.4879408  98.3599408  77.7820000 102.5719408  98.4729408  78.0380000
 103.7179408  99.1799408  77.3450000 117.1329408 103.4899408  66.5760000
 116.2129408 103.7239408  66.4540000 117.5309408 104.2739408  66.9540000
  95.3919408  99.8369408  81.5440000  94.4879408 100.0839408  81.7380000
  95.8819408 100.6569408  81.5990000 105.6989408 103.6459408  81.5090000
 104.9289408 104.2119408  81.4530000 105.7449408 103.3939408  82.4310000
  95.3759408  95.8509408  64.5400000  95.9379408  96.5929408  64.3170000
  95.1269408  96.0039408  65.4520000 111.4999408 110.8909408  81.6630000
 111.5299408 111.8449408  81.5890000 111.2169408 110.5929408  80.7990000
 106.1989408 102.7839408  84.3270000 106.9519408 102.3809408  84.7590000
 105.5079408 102.1229408  84.3830000 110.3079408 102.6819408  81.5200000
 109.5659408 102.7069408  82.1230000 110.0339408 103.2229408  80.7790000
 113.5869408 101.2759408  63.3410000 112.6949408 101.6219408  63.3230000
 114.1119408 101.9439408  62.9000000  97.8799408 116.0279408  83.7110000
  98.5289408 116.2299408  83.0370000  97.0729408 115.8609408  83.2240000
 108.4169408 104.7709408  80.7260000 108.8399408 105.1919408  81.4750000
 107.5249408 104.5919408  81.0240000 104.9759408 105.1649408  83.9550000
 105.6309408 105.7189408  83.5300000 105.4869408 104.4979408  84.4130000
 110.1269408 107.4139408  77.2570000 110.8569408 108.0169408  77.1180000
 110.2649408 107.0689408  78.1390000 107.7229408  99.0149408  74.5310000
 108.2079408  99.8399408  74.5330000 107.7629408  98.7109408  75.4380000
 102.1429408 103.0499408  83.4810000 102.7959408 103.1569408  82.7890000
 101.8279408 103.9369408  83.6530000  99.2999408  94.7489408  76.6790000
  98.4779408  94.7659408  76.1890000  99.0309408  94.7099408  77.5970000
 100.2849408  99.8869408  72.5980000 100.8409408  99.1149408  72.4900000
 100.1829408  99.9779408  73.5460000 118.8309408  97.2719408  62.2880000
 118.8699408  96.9779408  63.1980000 119.5399408  96.7969408  61.8530000
 107.8369408  95.8009408  78.3520000 108.7399408  95.6199408  78.0890000
 107.7859408  96.7559408  78.3950000 102.3099408 107.8379408  78.4750000
 101.5999408 107.7869408  77.8350000 102.9599408 108.4099408  78.0670000
 111.5769408 100.0929408  73.5580000 110.8019408 100.5149408  73.9290000
 111.6999408 100.5189408  72.7100000  95.6639408  98.1749408  78.2520000
  96.2629408  97.8789408  78.9380000  95.1889408  97.3859408  77.9920000
  95.9109408  96.2639408  83.1760000  95.8639408  95.3079408  83.1610000
  95.2579408  96.5469408  82.5370000  93.5549408 102.7819408  63.2750000
  92.7219408 102.4139408  63.5720000  93.4619408 103.7249408  63.4110000
 110.1159408  93.8369408  75.0270000 110.6079408  94.5009408  74.5440000
 109.2639408  93.8059408  74.5920000  99.1499408 119.6889408  82.5040000
  99.9349408 120.2339408  82.5540000  99.1679408 119.3219408  81.6200000
  99.0229408 100.0999408  83.4030000  98.3649408 100.6929408  83.7660000
  98.5369408  99.3039408  83.1870000  92.6359408  99.1879408  72.6550000
  92.1249408  99.8089408  73.1730000  91.9839408  98.6069408  72.2650000
 100.1199408  91.7629408  63.4120000  99.5699408  91.8339408  62.6310000
 100.9739408  92.0939408  63.1340000 114.7679408  96.0699408  77.1460000
 113.8289408  96.0299408  76.9640000 115.1819408  95.7409408  76.3480000
  95.1569408 101.4689408  75.1180000  94.3929408 101.0489408  75.5120000
  95.9069408 101.0229408  75.5130000 106.3049408 107.8459408  78.6500000
 106.4699408 108.5339408  78.0040000 106.6669408 107.0539408  78.2540000
 101.4229408  91.4139408  82.3640000 101.7979408  91.2949408  83.2370000
 102.1729408  91.6199408  81.8060000  94.3739408  92.0349408  82.5920000
  95.0449408  92.5869408  82.9950000  93.7539408  92.6539408  82.2080000
  97.8019408 106.5439408  67.0640000  97.6149408 105.6139408  67.1890000
  97.8329408 106.9049408  67.9500000 102.7309408 102.2139408  78.9580000
 102.2289408 101.4239408  78.7610000 102.6519408 102.7509408  78.1690000
  97.4109408  98.2469408  82.5390000  97.0039408  97.3889408  82.6570000
  96.8979408  98.6629408  81.8460000 108.8269408  93.5309408  82.3500000
 108.8589408  92.6169408  82.6340000 109.3369408  93.5479408  81.5400000
 104.6579408  91.6439408  84.3280000 105.2989408  91.5509408  85.0330000
 103.8909408  92.0299408  84.7510000  99.2199408 100.8319408  80.8010000
  98.2959408 100.9889408  80.6070000  99.2279408 100.5439408  81.7140000
  98.1889408 107.1529408  83.5900000  99.0689408 107.0679408  83.9560000
  97.9749408 108.0809408  83.6910000  97.2109408  98.0059408  65.3860000
  96.6419408  98.7579408  65.5510000  97.9689408  98.1489408  65.9520000
 120.1159408  98.1649408  71.4220000 120.1929408  97.2509408  71.1470000
 119.2939408  98.4639408  71.0340000  96.9089408  94.5699408  75.4710000
  96.4269408  95.1219408  74.8560000  96.2819408  94.3849408  76.1700000
 106.1519408 106.8349408  66.9130000 105.4469408 106.5409408  66.3350000
 105.7099408 107.0769408  67.7270000 105.4429408  90.1609408  73.2290000
 106.1079408  89.5109408  73.4580000 105.5879408  90.8799408  73.8430000
 114.0269408 109.3799408  81.4100000 114.2849408 108.4959408  81.6720000
 113.1719408 109.5119408  81.8210000 104.3959408 108.1949408  70.7400000
 104.3709408 108.1429408  71.6950000 104.2869408 107.2889408  70.4480000
  94.5679408 102.7609408  83.3450000  94.5269408 103.7069408  83.4870000
  94.8839408 102.6679408  82.4460000 111.5419408  92.2789408  84.3060000
 111.1949408  92.1159408  83.4290000 111.4429408  91.4439408  84.7630000
 104.6329408 113.1429408  70.1660000 104.8209408 113.6079408  69.3500000
 104.7559408 112.2189408  69.9490000 105.3159408 102.0549408  76.3340000
 104.9349408 102.8129408  76.7780000 106.1729408 101.9419408  76.7450000
 112.2929408 107.8109408  83.8080000 112.1829408 107.0259408  84.3450000
 112.7159408 108.4419408  84.3890000  97.2109408 101.8149408  84.3940000
  96.3699408 102.1359408  84.0660000  97.5599408 102.5409408  84.9100000
  90.1669408  98.8079408  80.3710000  89.8829408  98.0049408  80.8070000
  89.9809408  99.5029408  81.0020000 101.3649408  99.9299408  78.7550000
 100.7509408  99.2719408  78.4300000 101.2129408  99.9549408  79.7000000
 104.3869408 110.9349408  61.0510000 103.5169408 111.2199408  60.7720000
 104.8489408 110.7409408  60.2360000 100.7769408  99.9669408  75.3550000
 101.7099408 100.1599408  75.2610000 100.7469408  99.1889408  75.9110000
 109.8279408 105.7489408  73.0870000 110.5869408 105.7009408  73.6680000
 109.2939408 104.9909408  73.3260000 118.4329408  91.3169408  77.7720000
 118.3759408  90.3929408  78.0160000 118.3789408  91.7879408  78.6040000
 106.9629408 106.6139408  82.6300000 106.8069408 107.5369408  82.8310000
 107.8629408 106.5879408  82.3060000 116.9299408 101.9079408  61.8610000
 116.9209408 102.4829408  62.6270000 117.6339408 101.2839408  62.0360000
  90.8749408  93.4179408  83.9600000  90.5559408  92.5409408  83.7490000
  91.6379408  93.5389408  83.3940000 103.8929408 109.7199408  77.2500000
 103.8199408 110.5249408  76.7370000 104.7049408 109.3139408  76.9450000
 100.5189408  97.1779408  75.9270000 100.5439408  96.3239408  76.3590000
 100.1409408  96.9999408  75.0660000 105.9109408 117.6449408  80.9300000
 105.4609408 116.9469408  80.4540000 105.2979408 117.8989408  81.6190000
 107.6369408 120.0739408  82.6510000 107.4279408 119.3739408  82.0330000
 107.3079408 119.7569408  83.4920000  97.9469408  97.0969408  79.7360000
  97.9239408  96.1409408  79.7090000  98.7869408  97.3059408  80.1460000
 106.8989408 119.9439408  65.6780000 106.7499408 119.2089408  66.2740000
 106.6159408 119.6199408  64.8230000  99.8299408 117.2289408  65.4010000
  98.9329408 117.4469408  65.1470000 100.3679408 117.5429408  64.6740000
  91.1219408  96.0539408  69.6410000  90.6489408  96.3209408  68.8530000
  91.9209408  96.5809408  69.6320000 101.1519408 112.9069408  80.7830000
 101.1849408 111.9589408  80.9060000 100.5209408 113.0349408  80.0740000
 101.0869408 115.7069408  67.3250000 100.8939408 116.1889408  68.1280000
 100.7599408 116.2699408  66.6230000  92.6749408 108.7829408  70.9760000
  93.1839408 109.3299408  71.5740000  93.0549408 108.9529408  70.1140000
 103.9669408 105.5319408  65.7910000 104.1179408 104.5939408  65.6770000
 103.3829408 105.7699408  65.0710000  92.1679408  94.6769408  72.0900000
  91.6919408  95.0179408  71.3330000  91.8439408  95.1909408  72.8290000
  99.7219408 118.0699408  68.6160000  99.4219408 118.0619408  67.7080000
  99.1469408 118.6979408  69.0530000 101.7279408 110.3879408  81.2710000
 101.6209408 109.5149408  80.8940000 102.3419408 110.2629408  81.9960000
 118.0529408 115.8899408  72.2050000 118.2489408 116.7309408  72.6180000
 117.0989408 115.8779408  72.1250000  94.9999408 119.5199408  78.2440000
  95.1339408 119.6689408  79.1800000  94.6149408 120.3359408  77.9240000
 100.5059408 109.8669408  66.1100000  99.8559408 109.5139408  65.5030000
  99.9949408 110.3779408  66.7380000 103.0909408  95.1259408  64.6640000
 103.6829408  95.1169408  65.4160000 102.3979408  94.5079408  64.8970000
  93.3269408 114.6049408  79.3680000  94.2059408 114.2289408  79.3230000
  93.4169408 115.4729408  78.9750000 105.7609408 115.8819408  64.7460000
 105.6409408 115.0999408  64.2060000 104.9199408 115.9989408  65.1890000
 104.2179408 110.3289408  73.1910000 104.4609408 111.2159408  72.9250000
 105.0449408 109.9189408  73.4450000 107.6079408 111.4719408  81.4500000
 107.1129408 112.1989408  81.8280000 107.2049408 110.6879408  81.8230000
 102.8429408 114.9729408  81.9030000 102.4879408 114.2539408  81.3800000
 103.3269408 115.5089408  81.2750000  94.6779408 112.4899408  76.5850000
  95.2769408 113.2359408  76.6160000  95.2109408 111.7439408  76.8610000
 107.4849408 117.6719408  67.7400000 106.6389408 117.2889408  67.9700000
 107.8719408 117.0489408  67.1250000 104.3059408 118.7819408  67.3720000
 104.7559408 118.1469408  67.9280000 103.9669408 118.2639408  66.6420000
 114.3189408 114.7159408  74.1060000 114.8969408 113.9829408  73.8980000
 114.5489408 115.3919408  73.4680000 106.4369408 109.0669408  81.2430000
 106.5039408 108.3559408  80.6060000 105.6939408 109.5899408  80.9420000
 100.3759408 113.4779408  77.1180000  99.6279408 113.2069408  77.6500000
 100.5139408 112.7509408  76.5100000 105.4449408 115.1009408  74.0140000
 106.2459408 115.2109408  73.5020000 105.0809408 114.2679408  73.7140000
  99.1669408  95.4379408  65.7480000  98.8509408  95.6709408  64.8750000
  99.4189408  94.5179408  65.6750000  94.2729408 110.1469408  72.5690000
  93.8439408 110.9559408  72.8460000  95.0339408 110.0699408  73.1450000
  94.1789408 107.7809408  68.9290000  94.2309408 108.1619408  68.0530000
  93.5919408 107.0319408  68.8310000 101.1639408 119.3629408  74.0990000
 101.9599408 119.0219408  74.5070000 100.8289408 120.0059408  74.7250000
 101.2709408 119.4239408  60.7540000 101.1439408 119.1009408  59.8620000
 100.7259408 120.2099408  60.8040000 100.1639408 104.3359408  77.9330000
  99.7059408 103.4989408  77.8530000 100.9369408 104.2409408  77.3770000
  96.7049408 114.8669408  67.0240000  97.3139408 114.3839408  66.4660000
  96.0519408 115.2189408  66.4190000  96.9129408 116.0559408  73.0170000
  96.7609408 116.9919408  73.1450000  97.8609408 115.9539408  73.1010000
  99.9689408 115.5049408  71.5150000 100.0609408 116.2039408  72.1630000
  99.5309408 115.9229408  70.7730000 102.8559408  92.0519408  69.6080000
 103.6339408  91.5559408  69.8640000 102.6389408  92.5739408  70.3800000
 100.9059408 112.2719408  61.9450000 100.8709408 111.3879408  61.5790000
 100.4339408 112.8129408  61.3120000 105.8529408 113.8829408  67.9390000
 105.9139408 113.7729408  66.9900000 106.7569408 114.0099408  68.2250000
  97.6779408 105.6369408  78.2270000  97.3809408 105.6059408  79.1360000
  98.4549408 105.0779408  78.2080000  94.3649408 112.5619408  70.9050000
  93.8259408 113.0119408  71.5560000  95.0559408 113.1889408  70.6910000
 101.6299408 113.2589408  71.2250000 101.9139408 113.2529408  70.3110000
 100.9499408 113.9319408  71.2610000  93.3079408 112.3489408  74.1740000
  93.6449408 113.1049408  73.6930000  93.8179408 112.3319408  74.9840000
 118.1769408  92.4219408  80.1510000 117.3749408  92.2089408  80.6290000
 118.4289408  93.2859408  80.4760000 109.2209408 118.9019408  69.3070000
 108.6819408 119.2899408  69.9960000 108.5979408 118.6619408  68.6210000
  90.7819408 106.6869408  75.9170000  90.1779408 106.2529408  76.5200000
  90.3069408 107.4619408  75.6180000  96.7389408 114.1779408  69.9850000
  96.8389408 115.0859408  70.2700000  96.8689408 114.2079408  69.0370000
 100.4329408  91.4439408  75.7220000 100.5989408  91.4719408  76.6650000
 100.7079408  92.3039408  75.4050000  93.3309408 109.3729408  78.2010000
  92.4419408 109.5659408  78.5000000  93.8949408 109.6769408  78.9110000
 116.3379408  98.5209408  74.7070000 115.9319408  99.3879408  74.7270000
 115.5999408  97.9109408  74.7000000 105.4369408 113.2539408  80.0090000
 106.0059408 113.1119408  79.2530000 105.0009408 112.4129408  80.1430000
  97.0619408 111.4499408  69.2770000  97.2629408 112.2119408  69.8210000
  96.5489408 110.8769408  69.8470000 102.0659408 118.8869408  69.7040000
 101.2279408 118.5389408  69.3980000 102.5209408 119.1529408  68.9050000
 101.2699408 116.0949408  76.5260000 101.8939408 116.0249408  75.8040000
 101.2699408 115.2259408  76.9290000 100.8659408 108.4719408  62.7640000
 100.6719408 109.4039408  62.8690000 101.5619408 108.2989408  63.3990000
  99.4209408 111.4549408  67.9740000  98.8169408 111.4819408  68.7160000
 100.2109408 111.8929408  68.2920000 118.8549408 113.9129408  70.4620000
 118.1329408 113.2899408  70.3720000 118.5459408 114.5469408  71.1090000
  99.8059408 105.8759408  81.7940000  98.8959408 106.1509408  81.9020000
  99.7489408 104.9669408  81.5000000  97.9939408 111.3219408  74.6600000
  98.8919408 111.3319408  74.9910000  97.9779408 112.0019408  73.9870000
 115.4639408 115.1709408  68.5830000 114.5769408 115.4189408  68.3240000
 115.9009408 114.9499408  67.7600000 114.4759408 110.8279408  79.0240000
 115.3199408 111.0919408  78.6570000 114.7019408 110.2359408  79.7420000
 102.9509408  91.3049408  72.5350000 103.5739408  90.6049408  72.7320000
 102.1069408  90.9639408  72.8300000 119.8429408 116.8959408  68.9490000
 119.2369408 116.1979408  68.6960000 120.4319408 116.4839408  69.5810000
 103.2739408 116.0209408  65.5640000 103.0779408 115.8549408  66.4860000
 102.5129408 115.6839408  65.0920000 103.9679408 113.1959408  72.7510000
 103.0609408 113.1179408  72.4530000 104.4749408 113.3119408  71.9480000
  97.9659408 113.2009408  84.6000000  98.6309408 112.7009408  84.1270000
  97.9549408 114.0549408  84.1660000 118.8189408 118.9629408  79.5480000
 119.3499408 118.7979408  80.3270000 117.9169408 118.8389408  79.8420000
  97.1999408  92.1849408  79.7970000  97.7519408  91.4189408  79.6400000
  96.4489408  91.8439408  80.2840000 101.4439408 105.8639408  83.9440000
 102.0879408 106.3889408  83.4680000 100.7859408 105.6379408  83.2870000
 100.8959408 109.7499408  69.9370000 100.1039408 109.8069408  70.4710000
 101.6099408 109.9329408  70.5480000 109.0259408 104.6979408  65.6060000
 109.1789408 105.5409408  66.0320000 108.8219408 104.0999408  66.3250000
  96.7689408 118.4729408  74.2330000  97.3599408 119.2059408  74.4070000
  95.9639408 118.6979408  74.6990000 117.3529408  90.3099408  72.8330000
 117.5099408  89.6729408  73.5300000 117.9369408  91.0399408  73.0390000
 102.1129408 108.3489408  67.7370000 101.7449408 108.5769408  68.5910000
 101.5649408 108.8179408  67.1070000 114.6629408 109.5749408  72.4850000
 114.9049408 108.8659408  73.0800000 114.1909408 109.1409408  71.7740000
  91.4539408 119.7109408  75.8930000  91.4329408 120.6619408  76.0040000
  92.2849408 119.5399408  75.4500000  96.8329408 110.5419408  77.8900000
  97.4509408 109.8449408  77.6710000  96.2749408 110.1639408  78.5700000
 115.2199408 104.8659408  61.3530000 115.3179408 104.0859408  60.8060000
 114.4369408 105.3009408  61.0120000 108.8679408 117.6099408  63.3490000
 109.7269408 117.3279408  63.6620000 108.2529408 117.2769408  64.0020000
 101.2019408 118.7629408  63.4690000 101.2119408 119.5939408  63.9450000
 101.6049408 118.9659408  62.6240000  96.1329408 113.5059408  80.1000000
  96.3269408 113.2889408  79.1880000  96.9599408 113.8419408  80.4480000
 100.2109408 118.4339408  71.9620000 101.0079408 118.2959408  71.4500000
 100.5229408 118.6039408  72.8510000  91.6809408 118.4499408  67.5820000
  92.3499408 117.9409408  67.1260000  90.8959408 117.9039408  67.5440000
 115.9239408 112.7609408  73.2040000 115.7279408 112.7439408  72.2670000
 116.0819408 111.8459408  73.4340000 109.3099408 116.6769408  74.0320000
 109.6109408 116.8749408  74.9190000 109.3619408 115.7229408  73.9680000
  93.3539408 114.7089408  69.0660000  93.7559408 115.5449408  69.3010000
  92.5179408 114.9489408  68.6650000 119.6089408 117.8679408  75.3230000
 120.1049408 117.1339408  74.9590000 120.2649408 118.5469408  75.4810000
 112.3659408 104.6299408  68.6880000 111.7399408 104.6659408  69.4110000
 113.1379408 105.0919408  69.0160000  91.5119408 109.0599408  73.6060000
  90.8219408 109.4449408  73.0660000  92.0049408 108.5029408  73.0030000
  93.9449408 116.8669408  78.1460000  93.7629408 116.8199408  77.2080000
  94.4529408 117.6719408  78.2510000 103.2799408 112.0519408  75.6120000
 102.3279408 111.9589408  75.6370000 103.5199408 111.8259408  74.7140000
 102.9559408 111.3659408  66.3640000 103.4859408 111.8059408  65.6990000
 102.4029408 110.7609408  65.8690000 107.0119408 113.5979408  60.0990000
 107.4669408 114.3679408  60.4400000 106.1409408 113.9179408  59.8630000
 108.2589408 102.5979408  67.4360000 107.7069408 101.9699408  66.9700000
 107.6589408 103.0499408  68.0290000 116.3759408 113.1479408  82.1470000
 115.9069408 113.8409408  81.6830000 117.2419408 113.1299408  81.7400000
 102.6159408 112.0489408  84.5270000 102.7129408 111.7699408  85.4380000
 103.1399408 111.4229408  84.0270000  99.2759408 116.4629408  74.7030000
  99.7309408 116.2569408  75.5190000  99.1089408 117.4049408  74.7520000
 113.3719408 119.3539408  76.9710000 113.3079408 118.3989408  76.9860000
 112.9949408 119.6059408  76.1290000 106.2559408 113.4489408  82.4580000
 105.9049408 113.5529408  81.5740000 105.4959408 113.5559408  83.0320000
  96.9949408 105.9949408  80.7340000  96.4209408 105.7369408  81.4560000
  96.9939408 106.9519408  80.7580000 106.4109408 117.9309408  76.0400000
 106.7929408 118.4529408  76.7440000 106.9819408 118.0879408  75.2870000
 104.1419408 114.1589408  84.0840000 103.6309408 113.3779408  84.2940000
 103.5819408 114.6599408  83.4910000 103.5379408 106.9969408  82.3460000
 104.1009408 106.3869408  82.8230000 103.4289408 106.5979408  81.4830000
 103.4829408 109.4799408  83.5240000 103.6019408 108.6709408  83.0260000
 104.1959408 109.4769408  84.1620000 104.6979408 115.7839408  79.6430000
 104.8279408 115.7939408  78.6940000 104.6369408 114.8559408  79.8670000
  95.6269408 115.5319408  82.0670000  96.1349408 115.9269408  81.3580000
  95.2669408 114.7309408  81.6870000 114.5209408 107.0009408  82.3890000
 115.1209408 106.3069408  82.6620000 113.6929408 106.7869408  82.8180000
 100.6369408 111.0749408  75.7480000 101.0509408 110.3259408  76.1760000
 100.8889408 110.9959408  74.8280000 104.6019408 118.8039408  83.5100000
 105.1489408 118.3629408  84.1610000 104.6489408 119.7299408  83.7450000
 107.2359408 115.8399408  84.2300000 107.9919408 115.7569408  83.6490000
 106.6439408 115.1399408  83.9550000 106.3829408 115.0279408  76.5230000
 105.9809408 114.9789408  75.6560000 106.6939408 115.9299408  76.5930000
  89.8979408 115.6919408  82.9550000  89.7849408 114.8959408  83.4740000
  90.8379408 115.7319408  82.7780000  98.7329408 115.2859408  62.7840000
  99.4529408 115.3559408  62.1580000  98.2929408 116.1349408  62.7390000
 116.7709408  93.6649408  82.7270000 116.7729408  92.8369408  83.2070000
 117.3549408  94.2339408  83.2270000  99.9189408  93.5539408  81.8240000
  99.1149408  93.4609408  82.3350000 100.5089408  92.8899408  82.1800000
  91.2759408 110.9209408  82.3260000  91.5259408 110.2529408  81.6880000
  91.9619408 111.5849408  82.2600000  97.4129408 116.2019408  80.0570000
  97.4249408 116.6489408  79.2110000  98.2419408 116.4469408  80.4690000
 111.6459408 115.8579408  79.2480000 111.8839408 115.4889408  78.3980000
 111.1379408 115.1669408  79.6750000 116.5009408 113.4099408  63.8900000
 117.2679408 113.2959408  63.3290000 116.1529408 114.2679408  63.6490000
 102.1069408 118.3369408  82.1520000 102.8629408 118.3479408  82.7390000
 101.9139408 119.2609408  81.9920000  96.9049408 119.6589408  84.4020000
  97.4049408 119.1249408  85.0190000  97.5369408 119.8999408  83.7250000
 105.8789408  92.1039408  81.6990000 105.5149408  91.9559408  82.5720000
 106.7829408  91.7959408  81.7610000  98.8949408 111.6709408  79.8570000
  98.2309408 111.5909408  79.1720000  98.9859408 110.7849408  80.2080000
 109.3409408 109.3989408  80.3370000 109.0289408 109.1119408  79.4790000
 108.5439408 109.5879408  80.8320000 103.0649408  91.5539408  80.0000000
 103.9649408  91.6039408  80.3230000 102.9399408  90.6309408  79.7800000
 100.1359408 112.0139408  83.1660000 100.2959408 112.4989408  82.3560000
 100.9959408 111.9489408  83.5810000 104.4529408 110.9099408  63.7780000
 104.3679408 110.7669408  62.8350000 105.0229408 110.2019408  64.0770000
  97.1399408 117.5469408  77.6840000  96.8289408 117.2759408  76.8200000
  96.5409408 118.2459408  77.9460000 105.7979408 118.7229408  63.2530000
 105.6619408 117.7969408  63.0530000 105.1299408 119.1799408  62.7420000
  98.0329408 119.1679408  70.5370000  98.6119408 118.8459408  71.2270000
  97.5109408 119.8489408  70.9610000 102.8329408 106.8609408  73.8650000
 102.4649408 105.9809408  73.9370000 102.1939408 107.3459408  73.3420000
  95.5019408  90.1759408  80.8970000  95.1519408  90.8029408  81.5300000
  95.3639408  89.3209408  81.3060000 102.2429408  96.3459408  67.8770000
 103.0639408  95.9189408  67.6340000 101.5769408  95.9019408  67.3520000
 114.9609408 105.1169408  66.4150000 114.0719408 105.3439408  66.1410000
 115.4919408 105.8699408  66.1570000 109.3769408  97.5459408  72.7920000
 109.5639408  97.9789408  71.9590000 108.9799408  98.2279408  73.3340000
 119.9389408 102.9329408  80.1570000 119.2409408 103.5489408  79.9330000
 119.5489408 102.0699408  80.0180000 113.4369408  98.0999408  74.6000000
 113.0629408  98.4679408  73.7990000 113.0709408  97.2169408  74.6520000
 117.4789408  93.9939408  70.6530000 117.3369408  94.2939408  69.7560000
 117.7139408  93.0699408  70.5640000 113.8419408  97.9109408  71.1330000
 113.2649408  98.4849408  70.6300000 114.5029408  97.6239408  70.5030000
 114.1399408  91.3499408  70.9420000 113.2239408  91.4689408  71.1920000
 114.1099408  90.7419408  70.2040000  90.0609408  96.7279408  77.5830000
  90.7789408  97.3319408  77.7720000  89.7179408  97.0209408  76.7390000
 108.6229408  94.8899408  72.5080000 109.1929408  94.4829408  71.8550000
 108.9969408  95.7609408  72.6440000 118.2209408 113.3229408  74.8680000
 117.5639408 113.4529408  74.1850000 119.0359408 113.1649408  74.3900000
 117.7609408  92.7849408  63.9490000 118.2159408  92.0179408  63.6010000
 117.0409408  92.9349408  63.3370000 115.9399408  95.4359408  74.7680000
 116.1589408  95.8389408  73.9280000 115.7629408  94.5199408  74.5560000
 115.4509408  96.9699408  65.4990000 114.8859408  96.2069408  65.3780000
 115.7639408  97.1789408  64.6180000  90.4629408 112.8909408  73.2580000
  90.2129408 111.9829408  73.0880000  91.3599408 112.8359408  73.5870000
 104.7979408 101.2589408  80.4950000 104.1209408 101.7319408  80.0110000
 105.3779408 101.9449408  80.8280000 108.4659408 113.8039408  69.1880000
 108.8379408 114.6159408  68.8460000 108.9149408 113.1109408  68.7040000
  95.6159408  93.9159408  77.9620000  96.1299408  93.4149408  78.5940000
  95.1099408  93.2559408  77.4870000 115.2969408  95.6169408  79.7390000
 116.1719408  95.2819408  79.5430000 114.9219408  95.8239408  78.8830000
 100.5079408  97.1349408  80.9140000 101.3479408  96.7929408  80.6060000
 100.6289408  97.2549408  81.8560000  95.4309408  98.9249408  73.3460000
  94.5449408  98.8439408  73.6980000  95.4069408  99.7229408  72.8170000
 119.5329408  90.6999408  63.3760000 120.1959408  90.7629408  62.6890000
 119.1429408  89.8339408  63.2540000 109.1209408 101.3209408  73.8360000
 108.7309408 101.3989408  72.9650000 108.7629408 102.0599408  74.3270000
 113.4509408 106.6139408  77.9200000 113.0099408 107.2459408  77.3520000
 112.8429408 106.4799408  78.6470000  91.2429408 115.3819408  71.0890000
  91.8839408 114.7989408  70.6820000  90.4409408 114.8619408  71.1370000
 115.4529408 113.0009408  66.3470000 116.1639408 112.5919408  66.8410000
 115.8259408 113.1649408  65.4810000 109.8289408 102.1619408  64.8400000
 110.2879408 102.3219408  65.6640000 109.5549408 103.0299408  64.5450000
 115.5609408 101.1319408  75.4750000 115.1189408 100.5969408  76.1340000
 114.8589408 101.6419408  75.0700000 116.7429408  93.6139408  77.8620000
 116.4659408  94.0829408  77.0750000 116.0469408  92.9769408  78.0200000
 111.6259408 109.4869408  61.2030000 112.4039408 109.0829408  61.5860000
 111.3859408 110.1789408  61.8190000 119.2179408 113.7659408  65.8380000
 119.3659408 114.3189408  65.0710000 119.4309408 112.8809408  65.5410000
 111.2669408  90.7559408  68.5830000 111.3999408  91.0999408  69.4660000
 110.5919408  90.0849408  68.6870000 117.0209408  90.6149408  83.3560000
 116.1119408  90.3729408  83.1770000 117.4589408  89.7839408  83.5400000
 117.0549408 110.3509408  73.5330000 116.2059408 110.0659408  73.1960000
 117.4329408 109.5649408  73.9270000 113.3629408  95.0449408  71.8150000
 113.7649408  95.8809408  71.5770000 114.1039408  94.4649408  71.9930000
 114.9759408  91.0289408  80.1130000 114.6729408  91.3969408  79.2830000
 114.4759408  91.4979408  80.7810000 112.5319408 113.9129408  76.2690000
 113.3199408 113.8259408  76.8050000 112.8589408 114.0669408  75.3830000
 116.3219408  97.4929408  83.9420000 116.3019408  96.7529408  84.5480000
 117.1049408  97.9849408  84.1900000  90.1739408 101.8329408  71.6060000
  90.4409408 101.6049408  72.4960000  90.8999408 102.3529408  71.2630000
 115.7369408 109.1459408  68.1800000 114.8499408 109.1279408  68.5390000
 116.1869408 108.4239408  68.6170000 106.6539408  99.5689408  67.1000000
 106.2859408  99.1019408  66.3490000 107.5579408  99.2609408  67.1550000
 108.3429408 115.7469408  66.0430000 108.8659408 114.9999408  65.7510000
 107.5969408 115.7659408  65.4440000  94.7929408 115.8129408  65.2480000
  94.3529408 116.6369408  65.4600000  94.0799408 115.1949408  65.0880000
 113.2419408 113.1659408  70.4920000 112.9709408 113.7249408  69.7630000
 112.5509408 112.5069408  70.5570000 115.7379408 116.5139408  76.0000000
 115.5399408 115.6189408  75.7260000 114.8859408 116.8929408  76.2160000
  95.4109408  91.6389408  74.1010000  96.3529408  91.5459408  73.9540000
  95.1199408  92.2449408  73.4200000 114.4599408  92.0869408  77.5660000
 114.6979408  92.1839408  76.6440000 113.9199408  91.2969408  77.5930000
  98.5499408  94.3989408  79.4280000  99.1569408  94.0959408  80.1040000
  97.8149408  93.7869408  79.4750000 111.2339408  91.7299408  71.0500000
 111.0569408  91.7479408  71.9900000 111.0979408  92.6329408  70.7630000
 112.1169408  96.2239408  76.4610000 111.5759408  96.8179408  76.9810000
 111.6809408  96.1839408  75.6100000 117.9949408  91.5439408  69.2960000
 117.6689408  90.7739408  69.7610000 117.5859408  91.4939408  68.4320000
  94.1849408 109.2609408  75.5620000  93.2749408 109.4589408  75.3410000
  94.2369408 109.3929408  76.5080000 111.5719408 106.0879408  79.4610000
 111.2589408 106.5549408  80.2350000 112.0279408 105.3219408  79.8100000
 114.5889408 102.8039408  78.0590000 115.3309408 102.2919408  77.7360000
 114.9889408 103.5189408  78.5550000  92.6959408  94.0899408  81.8710000
  92.3059408  93.5869408  81.1560000  92.9999408  94.8979408  81.4560000
 119.8669408 112.4849408  83.7190000 120.5199408 112.0109408  83.2050000
 119.1229408 112.5889408  83.1250000 112.9719408 119.7709408  66.6800000
 112.3179408 120.1079408  67.2920000 113.6439408 119.3789408  67.2390000
 120.0319408  99.3559408  67.3470000 119.0959408  99.2539408  67.5190000
 120.1719408  98.9109408  66.5120000 102.1399408  97.4559408  72.2220000
 103.0799408  97.4309408  72.0430000 101.9669408  96.6499408  72.7080000
 112.2569408 102.3619408  71.4830000 111.7519408 103.1539408  71.2990000
 112.2079408 101.8529408  70.6740000 117.9939408  98.9349408  78.7130000
 118.8849408  98.7869408  79.0320000 117.4419408  98.4079408  79.2910000
  92.6369408  98.9269408  68.6340000  93.0599408  99.1289408  69.4690000
  91.7709408  99.3279408  68.7010000  91.9669408  98.2519408  78.4270000
  92.8179408  98.6559408  78.5950000  91.4089408  98.5619408  79.1400000
 117.5039408  95.9579408  72.6760000 117.6349408  95.1329408  72.2080000
 117.4329408  96.6169408  71.9850000 110.1629408  93.2489408  67.1740000
 110.7889408  92.6829408  67.6270000 109.4289408  93.3299408  67.7820000
 106.8479408 119.6619408  70.6200000 106.3209408 119.0759408  71.1630000
 106.2789408 119.8849408  69.8840000  95.8869408 100.2809408  65.3640000
  95.6359408 100.8369408  66.1020000  95.8729408 100.8659408  64.6070000
 112.0509408 117.8479408  81.3780000 112.2919408 117.3129408  80.6220000
 112.4079408 118.7149408  81.1820000 116.0049408 118.4509408  80.5770000
 115.3879408 117.8689408  80.1320000 115.6789408 119.3319408  80.3920000
 112.1649408  97.7679408  68.6350000 113.0789408  97.4839408  68.6030000
 112.1279408  98.5239408  68.0490000 114.3869408 100.8979408  67.2380000
 114.6949408 101.3449408  68.0260000 115.0989408 101.0059408  66.6070000
 110.4669408 117.5979408  76.5020000 110.0149408 118.4079408  76.7400000
 109.9129408 116.9009408  76.8520000 107.1799408 114.4859408  71.5940000
 107.1339408 114.0919408  70.7230000 107.8769408 115.1389408  71.5260000
 117.1109408  97.9229408  70.7590000 116.6699408  98.6599408  71.1820000
 117.2859408  98.2279408  69.8680000 114.4309408  98.2329408  60.1660000
 114.9999408  98.8329408  59.6840000 114.9499408  97.9689408  60.9260000
 117.6649408 107.8339408  80.4340000 117.0099408 107.9209408  81.1270000
 117.7929408 108.7259408  80.1110000 110.4459408  95.7249408  65.9510000
 110.6899408  94.9389408  66.4390000 111.2809408  96.0999408  65.6680000
  94.0989408 107.2339408  80.9040000  93.5579408 107.6299408  80.2210000
  94.7849408 107.8809408  81.0720000 113.0409408 115.6989408  67.7480000
 112.2169408 116.1149408  67.4950000 113.0589408 114.8799408  67.2530000
 105.0709408  93.1099408  71.9730000 105.9309408  92.7019408  71.8700000
 104.5769408  92.4959408  72.5170000  91.2549408  96.8109408  74.1630000
  90.3669408  96.7379408  74.5100000  91.5479408  97.6809408  74.4330000
 100.8509408 108.0429408  80.5640000 101.5169408 107.8769408  79.8970000
 100.6929408 107.1879408  80.9640000 115.3289408 103.5029408  71.5810000
 115.0329408 104.2309408  72.1270000 116.1189408 103.1829408  72.0170000
 117.1119408 117.8559408  74.3000000 116.6299408 117.3489408  74.9530000
 118.0099408 117.8809408  74.6300000 114.7879408  92.1149408  65.8990000
 114.1839408  91.3719408  65.9120000 115.6579408  91.7159408  65.9040000
 109.4179408 105.1679408  76.0930000 110.2329408 104.6729408  76.0060000
 109.6999408 106.0539408  76.3210000 117.7659408 103.5989408  63.8470000
 117.7389408 103.8419408  64.7720000 117.9009408 104.4269408  63.3850000
  95.1689408 104.5189408  76.3780000  95.8409408 104.4369408  77.0540000
  94.4199408 104.9079408  76.8290000 114.5049408  93.7859408  68.3370000
 114.6659408  93.1259408  67.6630000 115.3689408  93.9629408  68.7110000
 117.8919408 105.9599408  61.8140000 117.0629408 105.4949408  61.6950000
 118.2699408 106.0039408  60.9360000 111.4209408  95.9589408  73.7260000
 110.7449408  96.4539408  73.2630000 112.0389408  95.6999408  73.0420000
 107.9489408 107.1749408  71.2960000 107.9059408 106.2389408  71.0990000
 108.8179408 107.2979408  71.6800000 115.4809408 101.9639408  69.4060000
 115.1199408 102.5119408  70.1030000 116.2799408 101.5939408  69.7810000
 117.2379408  94.9699408  68.0610000 117.3909408  95.8909408  68.2740000
 117.5609408  94.8749408  67.1650000 106.7859408 108.4209408  61.6810000
 106.7219408 107.5299408  61.3370000 107.4129408 108.8559408  61.1040000
 112.8489408 103.5719408  79.9600000 113.5609408 103.2709408  79.3950000
 112.1069408 103.0129408  79.7290000 113.2589408  90.4689408  74.2250000
 113.7039408  89.7619408  73.7580000 113.9489408  91.1049408  74.4120000
  98.5139408 108.9249408  64.6940000  98.4449408 107.9949408  64.9100000
  97.8739408 109.0569408  63.9950000 106.2619408  95.6629408  71.8050000
 107.1559408  95.3529408  71.9450000 105.7269408  94.8699408  71.8260000
 115.2609408  92.5219408  75.1500000 116.1599408  92.1979408  75.2140000
 115.1129408  92.6349408  74.2110000 116.0369408  99.7699408  72.4210000
 116.3529408  99.1019408  73.0300000 115.0999408  99.8379408  72.6050000
 113.0209408  98.4339408  63.5050000 113.2149408  99.3699408  63.4500000
 113.4379408  98.1499408  64.3190000 108.3969408  91.7669408  64.5070000
 108.1719408  91.0319408  65.0770000 109.3529408  91.8069408  64.5340000
 119.4079408 110.4649408  72.4830000 118.5159408 110.4729408  72.8300000
 119.2959408 110.4509408  71.5330000 109.9099408  98.3669408  70.0660000
 109.9099408  99.2509408  69.6990000 110.6139408  97.9149408  69.6030000
 112.3429408 107.8229408  73.7280000 112.4789408 108.5569408  74.3260000
 111.4959408 107.9999408  73.3180000 108.5539408 108.9259408  84.6820000
 108.7939408 108.2999408  85.3660000 109.3529408 109.4279408  84.5250000
  90.9789408 101.7839408  66.4660000  90.8059408 101.5689408  65.5490000
  90.8379408 100.9619408  66.9360000 108.5449408  96.2349408  68.9460000
 108.6869408  96.3049408  68.0020000 108.8589408  97.0669408  69.2990000
 107.5829408  92.1169408  71.6990000 107.5359408  91.9249408  72.6360000
 107.4419408  91.2719408  71.2740000 113.0879408  96.0449408  62.2860000
 113.1179408  96.9629408  62.5550000 112.5769408  96.0479408  61.4770000
 109.4299408 119.0179408  60.8690000 110.3869408 119.0099408  60.8630000
 109.1899408 118.4979408  61.6360000 119.4029408 111.3029408  76.8030000
 119.1189408 112.1149408  76.3830000 120.2919408 111.4879408  77.1050000
 119.9999408  93.3119408  68.7350000 119.2879408  92.6869408  68.8720000
 119.6239408  94.1599408  68.9690000 116.0629408  96.2019408  62.8730000
 116.7759408  96.4759408  62.2960000 115.4759408  95.7009408  62.3070000
 115.4119408 110.8149408  61.5320000 115.4999408 110.9999408  60.5970000
 116.2239408 110.3649408  61.7650000 118.3659408  95.4669408  79.3010000
 118.8039408  95.9929408  78.6320000 118.0599408  94.6899408  78.8330000
 110.9419408  94.3839408  77.7550000 110.5819408  93.9059408  77.0080000
 111.5239408  95.0359408  77.3640000 119.4049408  99.7769408  61.2160000
 119.7829408  99.6169408  60.3520000 118.8879408  98.9919408  61.4010000
 111.4199408 103.2069408  84.2540000 111.6209408 102.3409408  84.6100000
 111.2789408 103.0559408  83.3200000 119.1759408 100.3779408  82.4850000
 118.2839408 100.5879408  82.2080000 119.0939408 100.1619408  83.4140000
 117.5159408 101.6489408  78.8270000 117.5849408 100.6959408  78.7670000
 117.6049408 101.8379408  79.7610000 118.1189408 103.0759408  83.9840000
 118.7619408 102.6759408  84.5710000 117.4529408 103.4369408  84.5690000
 111.7639408 103.3609408  62.3840000 111.7739408 103.7069408  61.4920000
 110.9559408 102.8499408  62.4340000 118.0309408 115.7699408  60.2010000
 117.6519408 116.3839408  59.5710000 118.7909408 116.2309408  60.5560000
  92.9169408 100.2559408  82.9200000  92.3259408 100.8239408  82.4250000
  93.4999408 100.8599408  83.3800000 111.1939408  94.9999408  84.4080000
 110.3499408  95.2639408  84.7730000 111.2559408  94.0639408  84.5980000
 118.7599408 118.1839408  63.0480000 118.8759408 117.2849408  63.3560000
 119.4779408 118.3219408  62.4310000  92.6489408  97.0719408  83.3300000
  92.9159408  97.8839408  82.8980000  92.1039408  96.6239408  82.6820000
 112.4329408 114.4709408  60.8190000 111.6569408 114.3989408  61.3750000
 112.5059408 113.6149408  60.3970000 117.0089408  97.7539408  80.9100000
 117.1639408  97.5669408  81.8360000 116.1749408  97.3249408  80.7160000
 109.5569408 109.2589408  64.7920000 109.8279408 108.5009408  64.2750000
 109.5719408 109.9889408  64.1730000 116.9399408 100.5709408  65.5480000
 117.2969408 101.4359408  65.7460000 117.5429408 100.2049408  64.9000000
 112.1869408  97.3489408  83.2340000 112.6329408  97.2299408  82.3960000
 111.9849408  96.4599408  83.5270000 113.0549408 116.8219408  75.9560000
 112.1179408 116.8199408  76.1500000 113.1779408 116.0819408  75.3610000
 116.0829408 104.9759408  82.9120000 116.8299408 104.5689408  82.4730000
 116.1679408 104.7089408  83.8270000 116.7119408 118.8939408  61.2240000
 117.5319408 118.5429408  61.5710000 116.3319408 119.3829408  61.9540000
 114.2559408 113.5429408  78.3680000 114.2759408 112.7569408  78.9150000
 115.1489408 113.6239408  78.0320000 114.1759408 108.5089408  61.7660000
 114.5339408 109.3739408  61.5650000 114.8279408 108.1069408  62.3410000
 115.2449408 105.1359408  79.2390000 114.6809408 105.3399408  79.9860000
 115.0279408 105.8009408  78.5860000 117.8889408  92.9389408  60.7890000
 117.1389408  92.3659408  60.9500000 117.5709408  93.8159408  61.0000000
 107.5889408  95.9449408  81.8650000 107.9269408  95.0509408  81.9150000
 108.2399408  96.4199408  81.3480000 110.0679408  96.6019408  80.6770000
 110.4109408  95.7399408  80.4420000 110.8469408  97.1369408  80.8290000
 119.4139408  93.1659408  76.0720000 119.2369408  92.3849408  76.5970000
 118.9069408  93.8589408  76.4960000 107.8799408  97.6249408  84.1220000
 107.7579408  96.6759408  84.0920000 107.0159408  97.9709408  84.3480000
 114.0009408  94.7069408  65.0710000 113.8849408  94.5229408  64.1390000
 114.2479408  93.8649408  65.4530000 118.6979408  94.9809408  83.9730000
 119.2289408  95.6649408  84.3820000 119.2709408  94.2149408  83.9480000
  99.8899408 101.8059408  77.1790000 100.2009408 101.2239408  77.8720000
 100.1229408 101.3559408  76.3660000  92.2539408 105.9619408  84.7120000
  91.4929408 105.4689408  84.4070000  93.0069408 105.4519408  84.4130000
 110.0029408  99.2039408  83.4090000 110.8009408  98.6759408  83.4560000
 109.3039408  98.6049408  83.6730000 113.6059408 102.7209408  74.1930000
 113.3069408 102.6279408  73.2890000 113.8659408 103.6389408  74.2670000
 113.0969408  97.0939408  80.7320000 113.5719408  97.7899408  80.2780000
 113.5829408  96.2959408  80.5220000 111.2829408  94.2129408  70.2370000
 112.1709408  94.4309408  70.5200000 110.9569408  95.0169408  69.8310000
  95.2779408 101.5559408  67.5480000  94.8449408 100.9229408  68.1220000
  95.5749408 102.2489408  68.1370000  96.0519408  96.0389408  72.9900000
  96.7619408  95.9259408  72.3580000  95.9799408  96.9859408  73.1040000
 116.9689408 116.1229408  82.1750000 117.8909408 116.2139408  82.4190000
 116.8059408 116.8519408  81.5770000  90.5089408  99.7659408  73.8980000
  89.8269408  99.7809408  74.5700000  90.2249408  99.0889408  73.2830000
 112.0069408 103.9469408  76.1180000 112.6479408 103.3789408  75.6900000
 112.4899408 104.3509408  76.8390000  93.1369408 105.9089408  77.4420000
  93.2879408 106.7359408  77.8990000  92.3239408 106.0479408  76.9560000
 114.1139408  93.7159408  81.1230000 114.5879408  94.4759408  80.7840000
 114.5419408  93.5189408  81.9560000 103.7419408  96.4529408  75.6390000
 104.2449408  96.8479408  74.9270000 103.4279408  97.1979408  76.1520000
  93.9139408 104.3159408  80.0960000  93.3239408 105.0459408  80.2810000
  93.8699408 104.2069408  79.1460000 109.3529408  99.0949408  79.9650000
 108.9699408  99.8979408  80.3180000 109.1119408  98.4159408  80.5960000
 107.2159408  92.2419408  74.2630000 107.4569408  91.6839408  75.0030000
 106.9959408  93.0849408  74.6600000  96.1759408  93.6459408  83.8610000
  97.0319408  93.4339408  84.2340000  95.6269408  93.8449408  84.6190000
  90.6509408 104.1239408  83.5250000  89.7119408 103.9479408  83.5810000
  90.9809408 103.4709408  82.9080000 117.4739408  98.2959408  67.3770000
 117.0789408  99.0559408  66.9490000 117.4529408  97.6089408  66.7110000
  93.5789408  95.2939408  74.7230000  94.2869408  95.7469408  74.2640000
  92.8469408  95.9109408  74.7040000 104.3679408  98.5949408  80.4910000
 104.4269408  99.5469408  80.5680000 104.3979408  98.4279408  79.5490000
  92.4339408 119.4479408  81.3220000  91.7669408 118.7629408  81.3040000
  92.1439408 120.0829408  80.6670000 109.6399408 107.0629408  81.6660000
 110.2749408 107.2579408  82.3550000 109.4069408 107.9179408  81.3040000
 117.1349408 102.3819408  81.4320000 116.3539408 101.8949408  81.6950000
 117.7049408 102.3559408  82.2000000  91.7099408  94.5589408  77.3620000
  91.2679408  94.1129408  76.6390000  91.0809408  95.2169408  77.6580000
  93.7859408  93.1389408  65.5410000  94.7399408  93.2159408  65.5740000
  93.5029408  93.8839408  65.0110000 112.3099408 100.3559408  81.7640000
 111.7209408 101.1059408  81.6740000 111.7629408  99.6659408  82.1410000
 118.6129408 110.5529408  80.3810000 119.2029408 110.8629408  81.0670000
 118.5069408 111.3039408  79.7970000 108.5159408 115.7009408  60.7170000
 108.6129408 116.6029408  61.0230000 109.1969408 115.5999408  60.0510000
 114.3199408 105.3179408  73.4330000 113.7379408 106.0469408  73.2200000
 114.8819408 105.6559408  74.1310000 112.5469408 105.5769408  64.2880000
 111.8889408 106.0879408  63.8160000 112.4899408 104.7009408  63.9070000
 109.5539408  90.0589408  77.2370000 109.8519408  90.3489408  76.3750000
 108.6799408  90.4369408  77.3290000 114.5779408 116.1839408  79.7680000
 115.3119408 115.7339408  79.3490000 113.8019408 115.8429408  79.3220000
 111.9709408 119.7309408  64.2900000 111.4919408 120.5529408  64.3860000
 112.2929408 119.5359408  65.1700000 109.7779408 113.9979408  73.5600000
 110.2779408 114.1409408  72.7560000 110.3799408 113.5269408  74.1360000
 106.2369408  92.5929408  67.0360000 106.4979408  91.7169408  66.7530000
 107.0569408  93.0199408  67.2820000 107.8549408  93.6489408  68.8230000
 108.0219408  94.5789408  68.9790000 107.6949408  93.2839408  69.6930000
 110.3289408 114.1079408  62.8240000 109.6049408 114.5969408  62.4350000
 110.2499408 114.2699408  63.7640000 111.6989408  90.0119408  79.4060000
 112.3109408  89.7979408  78.7010000 110.9559408  90.4209408  78.9620000
 117.1489408 111.4149408  68.1260000 117.0169408 111.9989408  68.8730000
 116.3659408 110.8649408  68.1090000 111.1139408  92.1109408  64.7390000
 111.1109408  92.6599408  65.5240000 111.5609408  92.6399408  64.0780000
 112.0079408 100.1399408  76.2200000 111.9829408 100.3189408  75.2790000
 112.8879408  99.7949408  76.3750000 106.6089408 108.0909408  73.3550000
 106.7289408 107.5009408  72.6110000 107.4469408 108.5439408  73.4390000
 117.8639408 107.4319408  69.3610000 117.7469408 107.2979408  70.3010000
 118.3079408 108.2779408  69.2930000  91.0329408 115.6039408  73.9710000
  90.2089408 115.2399408  74.2930000  91.2309408 115.0919408  73.1870000
  91.9339408 119.6879408  78.6420000  92.2469408 118.7839408  78.6550000
  91.5109408 119.7829408  77.7880000  91.1559408 108.4609408  80.0400000
  90.2709408 108.7809408  79.8660000  91.0349408 107.5459408  80.2950000
 107.4589408 109.6149408  66.9330000 106.5709408 109.2699408  67.0270000
 107.7209408 109.3639408  66.0470000 116.6749408 107.5639408  73.5590000
 116.2789408 107.7839408  74.4030000 116.8119408 106.6169408  73.5990000
 109.9319408 113.5469408  65.4520000 109.4589408 112.7149408  65.4690000
 110.8459408 113.3059408  65.6030000 113.0439408 111.6259408  73.4910000
 112.5689408 111.6099408  72.6600000 113.9519408 111.4399408  73.2520000
 111.5259408 117.0239408  63.9340000 111.8329408 116.7029408  63.0860000
 111.8009408 117.9409408  63.9570000 112.5659408 113.1829408  66.2490000
 112.5139408 112.3989408  66.7960000 113.4839408 113.2299408  65.9820000
  92.7359408 113.2419408  81.7040000  92.8889408 113.6109408  80.8350000
  92.5469408 113.9999408  82.2570000 115.2289408  93.2469408  72.4100000
 114.8559408  92.6399408  71.7710000 116.0849408  93.4789408  72.0500000
  93.0529408 116.7679408  75.5720000  92.4119408 116.2939408  75.0430000
  93.1159408 117.6289408  75.1590000 114.1119408 111.8259408  63.7350000
 114.7569408 112.4489408  64.0690000 114.4369408 111.5849408  62.8680000
 115.3229408 106.5199408  63.7300000 115.4299408 105.8639408  63.0410000
 114.4889408 106.2979408  64.1450000 115.6729408 110.8899408  83.2500000
 115.9379408 111.6929408  82.8020000 115.0279408 110.4909408  82.6670000
 118.0719408 105.0429408  74.1250000 118.3279408 104.1539408  73.8810000
 118.7059408 105.6059408  73.6790000 111.4969408 107.6769408  68.9910000
 110.6869408 107.9649408  69.4120000 111.2069408 107.1699408  68.2330000
 111.3089408 111.2979408  70.9070000 110.3719408 111.3809408  71.0840000
 111.3559408 110.9219408  70.0280000 112.7679408 109.3119408  77.3790000
 112.3009408 110.0629408  77.0110000 113.4259408 109.6989408  77.9570000
 109.7129408 111.5399408  67.5910000 109.1179408 110.8719408  67.2500000
 110.5109408 111.0599408  67.8100000 113.7039408 107.7479408  70.5130000
 114.1529408 106.9339408  70.2860000 112.9529408 107.7799408  69.9200000
 117.4709408 115.8359408  66.5070000 117.7579408 114.9329408  66.6370000
 117.3959408 115.9299408  65.5570000 117.1539408 115.2229408  78.8610000
 117.2309408 114.5909408  78.1470000 117.9429408 115.7599408  78.7930000
 118.9979408 105.2499408  77.3840000 118.6679408 105.0439408  78.2580000
 118.5579408 104.6249408  76.8080000 107.0249408 112.7099408  77.6690000
 106.8809408 112.0149408  77.0260000 106.7759408 113.5139408  77.2140000
 117.8379408 106.4779408  64.9610000 117.1649408 106.4449408  64.2810000
 118.2269408 107.3489408  64.8720000 108.1619408 101.4479408  78.1310000
 108.1129408 101.6889408  79.0560000 109.0279408 101.7449408  77.8520000
 101.7949408  94.1809408  75.4660000 101.0579408  94.3869408  76.0420000
 102.4969408  94.7619408  75.7580000 114.6279408 119.7129408  63.2650000
 113.6809408 119.5999408  63.3410000 114.9819408 119.3039408  64.0550000
 114.1549408 118.4689408  68.6710000 114.9869408 117.9959408  68.6860000
 113.5239408 117.8559408  69.0480000 117.6299408 118.3429408  67.5860000
 117.5669408 117.3909408  67.5050000 117.5549408 118.5079408  68.5260000
 116.7179408 113.2369408  77.1170000 117.0469408 113.5299408  76.2670000
 116.4409408 112.3329408  76.9690000 118.6429408 113.4169408  62.1320000
 119.5469408 113.7219408  62.2000000 118.2299408 114.0239408  61.5180000
 108.1019408 119.3339408  73.8490000 108.8249408 119.9569408  73.9170000
 108.5209408 118.5029408  73.6270000  90.8829408 105.8929408  80.9960000
  91.0199408 105.6469408  81.9110000  90.0429408 105.4959408  80.7640000
 119.7119408 117.0349408  78.1520000 119.5509408 117.4989408  77.3300000
 119.2639408 117.5589408  78.8150000  97.1339408 113.6299408  77.5170000
  96.9599408 114.4419408  77.0430000  97.4829408 113.0339408  76.8540000
  94.8129408 110.6049408  80.3340000  94.8989408 111.5329408  80.5520000
  94.8869408 110.1529408  81.1740000 115.3029408 116.0099408  71.7730000
 115.0519408 115.5969408  70.9470000 114.6769408 116.7259408  71.8830000
 105.4609408 113.4619408  63.0360000 105.9439408 113.2799408  62.2300000
 105.3659408 112.6069408  63.4560000 103.5109408 117.9189408  75.3630000
 104.4469408 117.8499408  75.5500000 103.2639408 117.0499408  75.0470000
 115.1669408 115.1589408  61.8110000 114.2559408 114.8679408  61.8270000
 115.3879408 115.2049408  60.8810000 111.1539408 117.1659408  66.5480000
 111.4189408 116.9389408  65.6570000 111.5359408 118.0299408  66.7000000
 106.0469408  94.5639408  75.7710000 106.0809408  94.5099408  76.7260000
 105.4529408  95.2939408  75.5940000  92.8799408 117.4629408  72.2670000
  92.0239408 117.0379408  72.2150000  93.2679408 117.3299408  71.4030000
 118.6919408 109.2009408  63.8620000 119.5599408 108.8229408  63.7170000
 118.1619408 108.8679408  63.1380000 117.3199408 108.8899408  61.5420000
 117.8129408 109.1749408  60.7720000 117.3469408 107.9339408  61.5040000
 111.9069408 110.2649408  68.2860000 111.7919408 109.3209408  68.3890000
 112.4119408 110.3589408  67.4790000 110.8209408 115.7819408  71.5460000
 110.6039408 115.9449408  70.6280000 110.7959408 116.6459408  71.9560000
 117.3569408  91.1799408  66.2670000 117.6309408  91.6629408  65.4870000
 118.0139408  90.4909408  66.3660000 108.4929408 110.8929408  71.3400000
 108.2899408 110.2629408  70.6490000 107.8709408 111.6069408  71.2050000
 117.5929408 118.9229408  70.4380000 117.4519408 119.3709408  71.2720000
 118.5019408 118.6269408  70.4740000  99.8979408 118.3239408  77.5680000
 100.5479408 117.6229408  77.5210000  99.0609408 117.8869408  77.4100000
  90.6229408 115.0849408  79.8260000  91.5509408 114.8679408  79.9130000
  90.5909408 115.7159408  79.1080000 119.5049408  99.6089408  63.9390000
 119.2369408  99.4409408  63.0360000 120.3389408  99.1489408  64.0320000
 114.9399408 118.5519408  72.8940000 115.6679408 118.0659408  73.2810000
 115.3499408 119.3119408  72.4820000 116.2609408 110.5759408  76.5330000
 115.9599408 109.7359408  76.1870000 117.1519408 110.4039408  76.8380000
  90.9209408 119.9589408  69.9480000  91.4189408 119.3979408  69.3520000
  90.0779408 120.0829408  69.5120000 110.1059408 116.3139408  68.9570000
 110.3829408 116.3689408  68.0430000 109.8789408 117.2129408  69.1940000
 107.8029408  91.4979408  62.0150000 107.8179408  91.3079408  62.9530000
 107.9959408  90.6579408  61.5970000 111.2849408 111.4409408  63.2030000
 112.1909408 111.6019408  63.4660000 110.9289408 112.3109408  63.0260000
 114.8339408 108.1349408  75.5300000 115.1179408 107.2749408  75.8380000
 114.2629408 108.4619408  76.2250000 115.9399408 113.0769408  70.1740000
 115.0409408 112.8989408  70.4490000 115.8779408 113.8789408  69.6550000
 109.0939408 115.2559408  77.6310000 108.8449408 115.5209408  78.5160000
 108.5189408 114.5169408  77.4310000 114.6889408 116.4959408  83.9890000
 115.4609408 116.4079408  83.4300000 114.0209408 115.9579408  83.5630000
 109.7889408 117.3129408  83.2930000 110.5389408 117.1429408  82.7230000
 109.6029408 118.2449408  83.1720000 116.0789408 118.6559408  65.3270000
 116.5179408 118.9459408  66.1270000 116.5309408 117.8469408  65.0860000
 111.9989408 117.5469408  61.0180000 112.9239408 117.6119408  60.7810000
 111.7279408 116.6889408  60.6910000 107.6129408 110.7449408  63.2240000
 107.4149408 109.8939408  62.8320000 107.7729408 111.3209408  62.4770000
 118.7029408 113.2359408  80.3090000 119.5569408 113.6369408  80.1500000
 118.0819408 113.8059408  79.8540000 109.1839408 112.3919408  79.3730000
 108.8759408 112.0519408  80.2130000 108.3959408 112.4469408  78.8330000
 112.4529408 112.8319408  84.3870000 113.2899408 113.2969408  84.4070000
 111.9209408 113.3219408  83.7600000 119.3329408 110.1069408  69.6110000
 120.1389408 110.5079408  69.2850000 118.7129408 110.1949408  68.8870000
 119.7389408  91.2499408  82.7270000 119.9719408  90.5979408  82.0660000
 118.7969408  91.1349408  82.8560000 116.4519408 108.2429408  83.9800000
 116.5979408 109.0739408  83.5290000 115.5169408 108.0689408  83.8690000
  92.8429408 115.7119408  83.1490000  93.7689408 115.4969408  83.0340000
  92.8479408 116.5679408  83.5780000 118.0669408 105.0089408  80.1910000
 118.0739408 105.9439408  79.9830000 117.1889408 104.8459408  80.5340000
 119.9059408 118.0329408  81.8660000 119.3759408 118.3819408  82.5830000
 120.0419408 117.1129408  82.0930000 110.8229408 110.4389408  84.5460000
 111.4419408 111.1659408  84.6110000 110.8099408 110.2179408  83.6140000
 114.2699408 119.2149408  84.6630000 114.2869408 118.9489408  85.5820000
 114.4699408 118.4149408  84.1780000 110.7379408  93.9019408  80.2470000
 110.8629408  93.9519408  79.3000000 111.6089408  94.0529408  80.6130000
 119.0199408 118.8129408  84.3330000 119.8619408 119.1639408  84.6250000
 118.8459408 118.0819408  84.9260000 116.1579408 116.4039408  63.9090000
 115.6669408 117.2129408  64.0520000 115.8099408 116.0549408  63.0890000
 107.0399408 118.4119408  84.8180000 107.5809408 118.5059408  85.6020000
 107.1749408 117.5059408  84.5410000 113.6199408 114.9529408  82.0760000
 112.8519408 114.5989408  81.6270000 114.1499408 115.3379408  81.3780000
 111.2529408 113.5169408  80.7880000 110.5179408 113.0819408  80.3570000
 110.8559408 113.9929408  81.5170000  93.1729408 119.6979408  83.8650000
  92.8949408 119.4999408  82.9710000  93.6089408 120.5479408  83.7990000
 114.4219408  99.4159408  80.1160000 115.2529408  99.6309408  80.5400000
 113.7539408  99.7569408  80.7110000 108.5739408 116.5729408  79.9790000
 109.3969408 117.0059408  80.2050000 107.9349408 116.9379408  80.5900000
 113.9579408  91.6669408  83.3620000 113.0839408  91.9459408  83.6370000
 114.0009408  90.7409408  83.6010000 113.5929408 110.4459408  66.1030000
 114.4549408 110.0469408  66.2220000 113.6239408 110.8299408  65.2270000
 111.0189408 111.9559408  77.3460000 110.6409408 112.0609408  78.2200000
 111.4569408 112.7889408  77.1720000 119.3579408  96.4659408  81.7420000
 118.9689408  96.1709408  80.9190000 119.0259408  95.8529408  82.3980000
  95.0389408 110.2599408  83.3180000  95.4329408 110.8059408  83.9980000
  94.2329408 109.9279408  83.7140000  92.0639408  92.4419408  79.6400000
  92.0359408  93.1009408  78.9460000  91.3919408  91.8059408  79.3950000
 106.0279408 119.2599408  78.5900000 105.0909408 119.1729408  78.4130000
 106.1359408 118.9249408  79.4800000 110.3859408 114.2079408  83.2040000
 110.0829408 115.1069408  83.3300000 109.8389408 113.6859408  83.7910000
 100.0009408 116.2329408  81.9690000 100.8279408 115.7619408  82.0740000
 100.2609408 117.1449408  81.8330000 103.1139408 119.2469408  78.1040000
 103.4209408 118.6579408  77.4150000 102.3449408 119.6749408  77.7280000
  94.1209408 133.6749408  13.7610000  94.0209408 134.4239408  14.3480000
  94.6659408 133.0579408  14.2490000 109.4019408 137.0039408   3.4620000
 109.3069408 136.1259408   3.8320000 108.6369408 137.1089408   2.8970000
 111.2879408 125.2629408  29.9310000 110.5409408 124.9539408  30.4440000
 110.9199408 125.9259408  29.3470000  96.9639408 147.2739408   4.1330000
  96.2589408 146.7169408   4.4630000  96.9889408 148.0129408   4.7410000
 111.1249408 121.1489408  21.7350000 110.9649408 120.2999408  21.3230000
 111.6349408 121.6379408  21.0890000  96.7109408 138.7099408  21.4700000
  96.3839408 139.3649408  22.0880000  97.6529408 138.8729408  21.4250000
  95.8789408 126.9689408   8.7010000  95.4139408 126.1719408   8.4480000
  95.9029408 127.4959408   7.9020000 105.1049408 137.8279408  15.6050000
 104.2939408 137.6459408  15.1300000 105.7899408 137.7719408  14.9380000
  90.6359408 134.0729408   8.5360000  89.8129408 134.3929408   8.1640000
  90.9089408 133.3719408   7.9450000 108.8559408 138.6129408   9.2840000
 108.4689408 138.1719408  10.0410000 108.1489408 139.1559408   8.9360000
  99.0639408 128.6819408  17.8260000  98.4579408 128.2489408  18.4280000
  99.3939408 127.9759408  17.2700000 101.2259408 131.3479408   5.7040000
 100.6419408 131.7979408   6.3140000 101.6789408 130.6969408   6.2400000
 107.4669408 135.2269408  17.9080000 107.9479408 135.1439408  18.7320000
 108.1319408 135.1079408  17.2300000 112.0799408 129.5039408   6.3360000
 111.9909408 129.7379408   5.4120000 112.7389408 130.1109408   6.6740000
  95.6149408 133.6859408   8.9500000  95.7649408 133.7169408   9.8950000
  94.7539408 134.0859408   8.8300000 119.3079408 138.9599408  15.2020000
 119.6479408 139.5329408  15.8900000 119.8979408 139.0979408  14.4610000
  92.5329408 127.1629408  28.8470000  93.2739408 127.5749408  29.2930000
  92.8629408 126.9599408  27.9720000 102.9309408 145.5519408  14.1980000
 103.8639408 145.3599408  14.1090000 102.5239408 145.1209408  13.4470000
 118.0369408 125.5629408   5.5490000 117.0969408 125.6829408   5.4130000
 118.2159408 124.6789408   5.2300000 108.3629408 141.3589408   0.6810000
 107.7089408 142.0489408   0.5670000 108.2789408 140.8169408  -0.1030000
 100.6849408 135.9839408   6.6650000 101.1339408 136.8249408   6.7490000
  99.8769408 136.0929408   7.1670000 108.4319408 124.8569408  25.0460000
 108.1149408 124.5139408  25.8810000 108.3719408 124.1159408  24.4430000
 118.7999408 129.9389408  15.7730000 117.8609408 129.9999408  15.5990000
 118.8569408 129.5959408  16.6650000  92.3889408 140.7699408   3.8460000
  93.1819408 141.3059408   3.8470000  92.6729408 139.9199408   4.1820000
 107.9779408 134.4559408  10.6650000 107.2519408 134.3639408  10.0480000
 107.7039408 133.9559408  11.4340000  99.6549408 144.0029408  30.1860000
  99.0479408 144.5939408  29.7410000 100.5229408 144.3469408  29.9750000
 103.5299408 134.6779408   0.5350000 102.9009408 133.9769408   0.7060000
 103.0779408 135.2629408  -0.0730000 106.9329408 142.0279408  13.3670000
 107.2779408 142.9039408  13.1980000 107.6629408 141.4399408  13.1730000
  94.4319408 148.7859408  26.2340000  94.8979408 148.1089408  25.7430000
  93.7839408 149.1269408  25.6170000 101.7599408 143.1179408   8.5430000
 101.6899408 143.8819408   7.9720000 102.0759408 142.4179408   7.9710000
 104.5309408 146.0489408   1.8910000 105.1549408 146.0429408   1.1650000
 104.9719408 145.5639408   2.5890000  91.5889408 127.8679408   5.1380000
  91.9129408 127.0799408   4.7030000  92.3749408 128.2939408   5.4810000
  94.3779408 121.6949408  16.6380000  93.4469408 121.8319408  16.4640000
  94.7679408 121.5709408  15.7730000 106.9779408 134.3809408  28.3850000
 107.8199408 133.9829408  28.6060000 107.1409408 134.8459408  27.5640000
 101.0189408 122.1809408  18.1460000 100.7569408 123.1019408  18.1390000
 101.6919408 122.1279408  18.8240000 105.1549408 120.6799408   8.8720000
 104.7649408 121.4279408   8.4200000 105.0899408 119.9599408   8.2450000
 105.4189408 134.0349408  13.0950000 104.8099408 133.9809408  13.8320000
 104.8679408 134.2559408  12.3440000  96.8749408 146.9259408   9.7580000
  97.0919408 147.8089408  10.0560000  97.0169408 146.9499408   8.8120000
 102.2769408 129.0759408  26.9600000 101.8759408 129.8269408  26.5240000
 102.9859408 129.4519408  27.4820000 118.5349408 135.5709408   7.6430000
 118.4489408 136.1489408   6.8850000 118.1879408 136.0809408   8.3750000
  98.3539408 126.3839408   3.5020000  99.0179408 126.9059408   3.0520000
  97.9879408 126.9769408   4.1590000 114.3849408 129.4109408  17.3650000
 114.7209408 128.5179408  17.2950000 114.2909408 129.5589408  18.3060000
  97.7939408 133.7699408   7.0920000  97.1589408 133.5089408   7.7590000
  98.3649408 133.0079408   6.9930000  99.0859408 122.8069408  12.3010000
  99.2659408 123.2629408  11.4790000  99.7729408 123.1059408  12.8980000
 105.8509408 133.9929408   9.0110000 105.1649408 134.5659408   8.6690000
 105.4019408 133.1709408   9.2080000  97.6489408 137.3009408  12.5020000
  97.1329408 137.8939408  13.0490000  97.6139408 136.4609408  12.9600000
 112.4549408 123.6049408   2.6640000 111.6819408 123.5749408   2.1000000
 112.7979408 124.4919408   2.5530000 111.2289408 140.5009408  14.9470000
 110.8759408 141.0379408  15.6570000 111.9479408 141.0209408  14.5870000
  97.2079408 128.2029408  29.8520000  97.3599408 128.7419408  30.6280000
  98.0649408 128.1409408  29.4310000 100.4099408 145.8839408  26.7950000
 100.4019408 146.2829408  25.9250000  99.6159408 146.2129408  27.2170000
 101.1919408 146.2969408   1.5580000 101.2509408 147.2469408   1.6600000
 101.6389408 145.9449408   2.3270000  94.6869408 123.6109408  12.3470000
  93.8339408 123.9499408  12.0730000  95.2309408 124.3909408  12.4540000
 103.1469408 132.3189408  27.0580000 103.5739408 132.0469408  26.2450000
 103.8619408 132.4039408  27.6880000 101.3659408 140.8169408  12.9800000
 101.3449408 141.5859408  12.4090000 102.2869408 140.5579408  12.9990000
 105.5709408 124.5019408  23.2080000 106.1229408 125.1429408  22.7600000
 105.2669408 123.9189408  22.5130000 104.5329408 139.5259408   7.8070000
 104.0209408 138.9609408   8.3850000 103.9069408 140.1799408   7.4950000
  94.9169408 134.0799408   6.0540000  95.2429408 133.2809408   6.4690000
  94.3959408 134.5079408   6.7330000 101.9419408 124.9309408  18.4310000
 102.8109408 125.3169408  18.3240000 101.7659408 124.9919408  19.3700000
  92.9999408 143.7209408   4.9930000  92.5599408 143.1309408   5.6050000
  93.7909408 143.2499408   4.7310000  99.3909408 125.9979408  13.5600000
  98.4679408 125.8209408  13.7410000  99.5449408 125.6099408  12.6990000
  96.4589408 139.0469408  14.2110000  95.7969408 138.9559408  14.8960000
  97.0899408 139.6709408  14.5690000 102.7269408 124.7419408  13.0350000
 103.5559408 124.2759408  12.9230000 102.3699408 124.4009408  13.8560000
 100.9189408 135.5149408  11.9010000 100.0709408 135.1079408  11.7250000
 100.7289408 136.4519408  11.9560000 101.2779408 128.6519408   9.3500000
 101.3409408 127.9429408   9.9910000 100.6729408 129.2789408   9.7440000
  97.3769408 148.8119408   1.6800000  96.6809408 148.2869408   1.2850000
  97.2869408 148.6599408   2.6210000 105.6899408 138.6069408   4.5490000
 105.8669408 138.6029408   3.6090000 106.2479408 137.9129408   4.9010000
  96.0069408 120.8799408   4.4630000  96.8559408 120.4709408   4.2940000
  96.1609408 121.8149408   4.3310000  99.4119408 128.7209408   6.5640000
  99.9009408 128.4549408   7.3430000 100.0189408 129.2819408   6.0810000
 100.9679408 138.3959408  15.9660000 101.6029408 137.8829408  15.4660000
 100.1389408 137.9329408  15.8490000  99.0729408 130.0809408   9.9790000
  99.3089408 130.3209408  10.8750000  98.1399408 129.8699408  10.0250000
  98.6629408 143.0849408   5.7270000  99.1639408 142.7029408   6.4480000
  99.3049408 143.2099408   5.0280000 102.1909408 123.0269408   6.6490000
 102.5829408 123.5069408   7.3790000 102.8259408 122.3399408   6.4440000
  92.7639408 130.3209408  15.9390000  92.1979408 130.7929408  15.3280000
  92.1579408 129.8679408  16.5260000  93.7929408 125.9289408  18.5460000
  94.5359408 125.3939408  18.2680000  93.0419408 125.5539408  18.0850000
  97.2649408 125.4869408  10.7700000  96.6499408 126.0649408  10.3180000
  97.6409408 124.9459408  10.0760000  94.4899408 124.3149408   8.6110000
  93.8189408 123.6769408   8.8510000  94.7519408 124.0669408   7.7250000
 108.2059408 131.1969408  11.0920000 108.7899408 131.1579408  10.3350000
 107.3289408 131.0939408  10.7250000 102.6159408 122.7419408   2.6460000
 102.2479408 123.1119408   1.8440000 103.2749408 123.3789408   2.9240000
 113.6789408 139.2509408  25.6230000 112.9449408 138.9459408  26.1550000
 114.0749408 139.9529408  26.1400000  93.9959408 130.0319408  19.2360000
  94.7059408 129.4889408  18.8920000  94.1359408 130.8909408  18.8370000
 103.6049408 129.6929408   3.1680000 104.0819408 128.9459408   3.5280000
 104.2209408 130.4239408   3.2310000 100.6809408 131.2849408   0.4750000
 100.9629408 131.9649408  -0.1370000 100.5939408 131.7389408   1.3140000
  96.1979408 148.7859408   7.3920000  95.6229408 149.3219408   7.9370000
  96.9389408 149.3569408   7.1890000 105.6389408 126.6119408   8.9870000
 105.6199408 126.6119408   9.9440000 106.5409408 126.8459408   8.7660000
 106.1629408 140.3279408   9.8410000 105.8969408 140.1039408   8.9500000
 105.7949408 139.6309408  10.3840000 108.8369408 139.6889408  13.6890000
 109.6529408 139.8079408  14.1740000 109.0429408 139.9709408  12.7980000
  97.3569408 134.9479408  14.1060000  96.7409408 134.6609408  14.7800000
  97.7119408 134.1349408  13.7450000 112.1589408 131.9809408   8.6940000
 112.2029408 132.9319408   8.6020000 112.8179408 131.6489408   8.0840000
  91.5759408 121.8369408  12.3790000  91.6699408 121.3979408  11.5340000
  91.7809408 122.7539408  12.1980000  99.7979408 133.5629408  20.7020000
  99.9119408 132.6129408  20.6900000 100.2249408 133.8659408  19.9000000
  95.8779408 131.1339408  28.3530000  96.6849408 131.2089408  28.8610000
  95.1959408 130.9759408  29.0060000 102.6309408 133.1459408  14.3340000
 102.2629408 133.3379408  13.4710000 102.9819408 132.2589408  14.2530000
 100.1429408 128.5439408   2.9460000 100.7999408 128.6049408   2.2530000
 100.5939408 128.8529408   3.7320000  94.7069408 135.4199408  23.1280000
  94.5639408 135.8999408  22.3120000  94.9709408 136.0909408  23.7570000
  92.9149408 136.4549408  14.3630000  93.5279408 137.1049408  14.7050000
  92.2449408 136.3749408  15.0420000  99.9729408 121.6209408   9.1660000
 100.8859408 121.7839408   8.9290000 100.0159408 121.2549408  10.0490000
 102.5159408 129.3919408   7.0440000 102.9239408 128.9559408   6.2950000
 102.6179408 128.7729408   7.7670000 110.6819408 134.5549408  10.8580000
 110.4699408 134.9719408  11.6930000 109.8309408 134.3559408  10.4670000
 108.2509408 130.8129408  27.5970000 107.9399408 130.8729408  26.6940000
 109.1989408 130.9269408  27.5330000  95.0659408 132.1979408  18.1450000
  95.8319408 131.7159408  17.8330000  94.6889408 132.5859408  17.3550000
  94.4699408 126.9909408  21.0950000  94.3759408 126.7169408  20.1820000
  94.4599408 127.9469408  21.0610000 106.7989408 128.8369408  21.9130000
 106.1259408 128.2629408  21.5470000 107.3839408 128.2479408  22.3890000
 107.3339408 121.3149408  17.3720000 107.1459408 122.1649408  17.7700000
 106.5919408 120.7639408  17.6200000  94.3569408 144.6489408  13.1330000
  95.1819408 145.0809408  12.9100000  93.8739408 145.2999408  13.6410000
  96.0859408 134.8579408  11.4430000  95.4669408 135.3769408  10.9300000
  95.9959408 135.1919408  12.3360000 103.4409408 136.1729408   8.5040000
 103.3789408 135.9409408   7.5780000 102.7799408 136.8539408   8.6260000
  98.5019408 124.1379408   8.6120000  98.8629408 124.4539408   7.7840000
  98.9809408 123.3279408   8.7890000  99.2219408 149.9579408  19.5540000
  99.1209408 149.3189408  18.8490000  99.7729408 150.6449408  19.1780000
  95.8979408 146.1729408  15.7840000  94.9769408 146.4009408  15.6590000
  96.2559408 146.1269408  14.8980000  94.1719408 128.0399408   6.5580000
  93.5999408 128.3309408   7.2680000  94.3229408 128.8259408   6.0330000
 110.9309408 128.1219408  17.8530000 110.4899408 128.4399408  18.6410000
 111.2959408 128.9089408  17.4480000  93.5469408 149.1949408  14.3880000
  93.4529408 148.7309408  13.5560000  94.0779408 149.9629408  14.1760000
  97.6459408 135.5889408   0.5610000  98.1379408 134.9059408   1.0160000
  98.1499408 136.3889408   0.7110000  99.7719408 122.8839408   5.6410000
 100.6209408 122.7349408   6.0590000  99.7999408 122.3549408   4.8440000
  99.0259408 136.3989408  15.6100000  98.7289408 136.0099408  16.4320000
  98.4029408 136.0809408  14.9560000 114.9449408 130.7089408  22.4340000
 114.4059408 130.1399408  22.9830000 114.3479408 131.3989408  22.1430000
 102.9919408 126.0789408  20.9050000 103.2669408 126.9929408  20.8340000
 103.4549408 125.7489408  21.6750000 103.9919408 130.0189408  29.0960000
 104.7189408 129.4589408  29.3680000 104.3539408 130.5539408  28.3890000
 105.0069408 127.1169408  28.0480000 105.2319408 127.0419408  28.9750000
 104.1499408 126.6969408  27.9740000 109.7759408 137.0209408   6.7930000
 109.6259408 137.7959408   6.2530000 109.1299408 137.0889408   7.4960000
 114.9269408 135.3199408   9.5870000 115.3159408 134.5869408  10.0650000
 115.3279408 135.2809408   8.7190000  95.7419408 131.5499408  12.2860000
  95.5099408 131.7689408  13.1890000  96.5849408 131.9799408  12.1450000
 119.0709408 122.3679408  13.5800000 119.1899408 122.7229408  14.4610000
 119.9599408 122.2269408  13.2550000 105.3469408 127.8619408  13.5700000
 105.5059408 127.1419408  12.9600000 106.2199408 128.1279408  13.8590000
 103.9419408 147.7469408  11.2050000 103.6119408 147.6369408  12.0970000
 103.2129408 148.1429408  10.7270000  91.1999408 137.8119408  29.4490000
  91.9049408 138.0979408  30.0290000  91.6469408 137.3699408  28.7280000
  92.4759408 133.4329408  11.5170000  92.9669408 133.3179408  12.3310000
  92.3929408 134.3819408  11.4200000  94.0809408 130.9719408  10.1910000
  93.3579408 131.5829408  10.3280000  94.6869408 131.1519408  10.9110000
  92.4699408 122.2689408   9.4860000  91.9209408 123.0069408   9.2190000
  91.8819408 121.5139408   9.4670000  93.0199408 136.0899408  11.5960000
  92.9749408 136.1599408  12.5500000  93.1089408 136.9939408  11.2930000
 102.5739408 134.1909408  16.7410000 102.6879408 133.7449408  15.9010000
 103.3929408 134.6689408  16.8720000 105.7109408 132.0629408  28.0250000
 106.5479408 131.6029408  28.0980000 105.9129408 132.9669408  28.2670000
  99.4949408 135.9309408   3.8740000  99.7659408 135.7989408   4.7830000
  99.9059408 136.7569408   3.6190000  98.0449408 138.2839408  17.2700000
  97.8129408 137.5769408  17.8720000  98.2419408 137.8409408  16.4450000
  98.0199408 121.0509408  14.0630000  98.1869408 121.8039408  13.4960000
  98.5849408 121.1939408  14.8240000 102.3299408 143.4389408   4.0320000
 101.5709408 142.9229408   3.7610000 103.0749408 143.0059408   3.6160000
  93.8559408 148.2669408   6.1100000  93.5329408 149.1219408   5.8250000
  94.7399408 148.4389408   6.4320000  92.1229408 142.1309408  17.8600000
  92.8419408 141.8089408  17.3180000  92.3069408 143.0629408  17.9750000
 108.9909408 128.3469408   5.9690000 109.9089408 128.3779408   6.2400000
 108.8449408 127.4349408   5.7200000  95.8029408 136.0779408   4.3120000
  96.5949408 135.6419408   3.9980000  95.6179408 135.6609408   5.1540000
 105.6349408 131.6509408   3.7230000 106.4549408 131.1739408   3.8460000
 105.4639408 132.0589408   4.5730000 103.6209408 135.0579408  11.2560000
 102.8359408 135.3699408  11.7060000 103.5009408 135.3309408  10.3470000
  96.7349408 130.4089408  16.9120000  97.6709408 130.2119408  16.8740000
  96.3309408 129.5979408  17.2210000  99.1019408 139.7299408  22.1000000
  99.8669408 139.3959408  21.6300000  99.3469408 140.6199408  22.3550000
  98.8879408 140.4159408   1.5990000  98.2829408 139.7779408   1.9770000
  98.7719408 141.2019408   2.1330000 103.4439408 120.5639408   5.1250000
 104.2609408 120.5429408   5.6220000 103.7179408 120.5099408   4.2090000
  98.1309408 137.3219408   9.6840000  98.1119408 138.2399408   9.4110000
  97.9969408 137.3509408  10.6310000 101.8609408 128.8709408   0.8180000
 101.4729408 129.7019408   0.5460000 102.8049408 129.0259408   0.7920000
 104.0549408 140.7059408  19.8650000 103.1819408 140.5199408  20.2090000
 104.1139408 140.1809408  19.0660000  98.7819408 134.8269408  10.5120000
  97.8989408 134.6719408  10.8490000  98.7299408 135.6859408  10.0920000
 115.7759408 135.5769408  15.5950000 116.5949408 135.4519408  15.1160000
 115.8309408 134.9639408  16.3280000 104.7319408 125.0299408   6.7360000
 105.2879408 124.2539408   6.6670000 105.2679408 125.6689408   7.2060000
 104.7409408 138.3739408  28.8420000 105.0239408 139.2489408  28.5730000
 105.2609408 138.1829408  29.6220000 104.8019408 135.4929408  16.8610000
 104.9129408 136.3009408  16.3600000 105.6729408 135.3059408  17.2110000
  97.7279408 133.2519408  26.7680000  97.4999408 132.7349408  27.5410000
  98.4259408 133.8349408  27.0650000 108.8059408 138.6449408  29.5420000
 109.1739408 137.7629408  29.4910000 109.4979408 139.2139408  29.2050000
 117.4529408 132.4809408  12.6510000 116.9679408 131.6609408  12.7380000
 118.3159408 132.2169408  12.3320000 109.8039408 130.9529408   8.8190000
 110.7069408 131.2619408   8.7410000 109.2889408 131.5889408   8.3220000
 103.6759408 132.0399408   8.3110000 102.9579408 132.4469408   8.7970000
 103.3909408 131.1369408   8.1740000  94.4319408 119.9699408   9.1520000
  94.9539408 120.3289408   9.8690000  93.7079408 120.5879408   9.0490000
  93.1979408 135.2869408   7.9950000  92.5999408 135.4139408   7.2590000
  92.7259408 134.7069408   8.5910000 103.4919408 130.2479408  15.4210000
 104.1179408 130.9619408  15.5410000 104.0109408 129.5349408  15.0460000
 118.8019408 126.7519408  15.1170000 118.5949408 126.3399408  14.2790000
 117.9779408 127.1509408  15.3980000  96.3509408 132.5299408  20.8020000
  95.7639408 132.6359408  20.0530000  96.8079408 133.3679408  20.8690000
  92.1939408 122.4329408  15.0200000  91.9859408 122.0149408  14.1840000
  92.7589408 123.1699408  14.7850000 110.3539408 121.1919408  14.3940000
 111.2449408 121.0649408  14.0680000 110.3279408 122.1089408  14.6690000
 102.9529408 138.1909408   4.7110000 102.8259408 138.4779408   5.6150000
 103.8859408 138.3269408   4.5450000 101.2079408 133.2309408   9.6310000
 101.4929408 133.1859408  10.5430000 100.4689408 133.8389408   9.6400000
  95.2889408 136.5969408   1.2440000  96.1979408 136.4009408   1.4730000
  95.0949408 136.0109408   0.5130000  95.9609408 121.2959408  10.8390000
  96.7089408 121.8909408  10.8830000  95.2019408 121.8499408  11.0230000
 104.0369408 129.3019408  10.0320000 103.0859408 129.2279408   9.9500000
 104.3769408 128.5189408   9.5980000 103.8409408 135.9929408  19.9150000
 103.3829408 135.6059408  19.1690000 104.1529408 136.8389408  19.5910000
 107.9259408 133.8949408  14.1400000 106.9729408 133.9149408  14.2200000
 108.2449408 134.1439408  15.0080000 107.9639408 124.7779408   0.3340000
 107.0519408 125.0459408   0.4500000 108.1979408 124.3589408   1.1630000
  96.0819408 131.7559408   3.1260000  95.2619408 132.2489408   3.0890000
  96.7199408 132.3779408   3.4750000 110.7849408 131.9599408  17.6010000
 111.3309408 131.2469408  17.2700000 110.9109408 132.6709408  16.9720000
 106.0959408 130.7469408   9.5820000 105.3069408 130.3579408   9.9590000
 106.3329408 130.1619408   8.8630000 101.8799408 131.9409408   3.1400000
 101.5959408 131.9629408   4.0530000 102.2839408 131.0799408   3.0340000
 100.6029408 138.1769408  12.3180000  99.6709408 138.0139408  12.4610000
 100.6839408 139.1309408  12.3230000 106.8019408 140.5669408  15.9690000
 107.5409408 139.9729408  15.8380000 106.7199408 141.0359408  15.1380000
  96.3819408 123.8779408   6.2780000  96.8239408 124.1609408   7.0780000
  96.7769408 124.4079408   5.5850000 107.8219408 130.6709408  24.7140000
 107.0509408 130.2079408  24.3860000 108.5589408 130.2549408  24.2680000
 110.9929408 136.8169408   1.4860000 111.3499408 137.6909408   1.3270000
 110.4049408 136.9299408   2.2320000 117.1529408 133.0869408  16.5300000
 117.5009408 132.5009408  17.2020000 116.4709408 132.5749408  16.0950000
 118.4819408 130.9349408   9.6410000 118.8959408 131.1749408  10.4700000
 118.9019408 131.4979408   8.9910000 104.8989408 146.5689408   8.8670000
 104.8359408 146.8249408   9.7880000 104.8469408 145.6129408   8.8800000
  96.4319408 129.2409408   9.6680000  95.6539408 129.7959408   9.6110000
  96.1929408 128.4429408   9.1960000 107.9739408 130.1959408   4.3400000
 108.5639408 130.9399408   4.4650000 108.2259408 129.5729408   5.0210000
 104.5639408 131.3319408  12.5050000 105.3129408 131.9219408  12.4160000
 104.8419408 130.5249408  12.0710000  95.8949408 139.3489408  10.4970000
  95.2319408 139.5939408  11.1420000  95.4229408 138.8129408   9.8600000
 100.5329408 124.8369408  11.0850000 100.4469408 125.5079408  10.4070000
 101.3799408 125.0149408  11.4930000  98.3729408 143.4639408  13.1860000
  99.1639408 143.9339408  12.9220000  97.6539408 143.9979408  12.8490000
  98.0019408 133.8009408   4.2870000  98.6839408 134.4149408   4.0160000
  97.9259408 133.9279408   5.2330000  98.5919408 140.0079408  11.6570000
  97.6919408 139.6829408  11.6220000  98.5009408 140.9549408  11.7650000
  98.5059408 149.5499408   4.7200000  99.2599408 149.8159408   4.1930000
  98.6619408 149.9459408   5.5770000  94.0379408 147.2559408   9.9530000
  94.9729408 147.0479408   9.9550000  93.9999408 148.1869408   9.7350000
 107.8569408 125.7969408   6.3200000 108.7739408 125.6119408   6.1180000
 107.3679408 125.4069408   5.5960000 114.8209408 127.4299408   8.6100000
 114.9309408 126.7309408   7.9650000 115.4989408 128.0679408   8.3900000
  99.6499408 131.8419408   7.8760000 100.4039408 132.2779408   8.2730000
  99.2779408 131.3139408   8.5820000 107.8409408 131.3329408  21.0730000
 107.5779408 130.4969408  21.4570000 107.0239408 131.8229408  20.9800000
 106.4069408 123.6289408  19.0480000 107.1099408 124.2789408  19.0450000
 106.1969408 123.5069408  19.9740000 101.6449408 128.1269408  23.6070000
 101.9199408 127.4939408  24.2710000 101.9309408 128.9729408  23.9510000
 108.3389408 128.6359408  17.0160000 108.1949408 129.4509408  17.4970000
 109.2549408 128.4159408  17.1850000  97.8239408 129.7049408   1.9020000
  98.6989408 129.3949408   2.1340000  97.3699408 129.7939408   2.7400000
  97.4669408 129.5539408  26.4890000  97.0789408 130.1509408  27.1290000
  97.8689408 130.1279408  25.8380000 103.4879408 128.3599408  17.7820000
 102.5719408 128.4729408  18.0380000 103.7179408 129.1799408  17.3450000
 117.1329408 133.4899408   6.5760000 116.2129408 133.7239408   6.4540000
 117.5309408 134.2739408   6.9540000  95.3919408 129.8369408  21.5440000
  94.4879408 130.0839408  21.7380000  95.8819408 130.6569408  21.5990000
 105.6989408 133.6459408  21.5090000 104.9289408 134.2119408  21.4530000
 105.7449408 133.3939408  22.4310000  95.3759408 125.8509408   4.5400000
  95.9379408 126.5929408   4.3170000  95.1269408 126.0039408   5.4520000
 111.4999408 140.8909408  21.6630000 111.5299408 141.8449408  21.5890000
 111.2169408 140.5929408  20.7990000 106.1989408 132.7839408  24.3270000
 106.9519408 132.3809408  24.7590000 105.5079408 132.1229408  24.3830000
 110.3079408 132.6819408  21.5200000 109.5659408 132.7069408  22.1230000
 110.0339408 133.2229408  20.7790000 113.5869408 131.2759408   3.3410000
 112.6949408 131.6219408   3.3230000 114.1119408 131.9439408   2.9000000
  97.8799408 146.0279408  23.7110000  98.5289408 146.2299408  23.0370000
  97.0729408 145.8609408  23.2240000 108.4169408 134.7709408  20.7260000
 108.8399408 135.1919408  21.4750000 107.5249408 134.5919408  21.0240000
 104.9759408 135.1649408  23.9550000 105.6309408 135.7189408  23.5300000
 105.4869408 134.4979408  24.4130000 110.1269408 137.4139408  17.2570000
 110.8569408 138.0169408  17.1180000 110.2649408 137.0689408  18.1390000
 107.7229408 129.0149408  14.5310000 108.2079408 129.8399408  14.5330000
 107.7629408 128.7109408  15.4380000 107.0589408 124.2909408   3.6940000
 107.3229408 123.4279408   4.0130000 106.3329408 124.1129408   3.0950000
 102.1429408 133.0499408  23.4810000 102.7959408 133.1569408  22.7890000
 101.8279408 133.9369408  23.6530000  99.2999408 124.7489408  16.6790000
  98.4779408 124.7659408  16.1890000  99.0309408 124.7099408  17.5970000
 100.2849408 129.8869408  12.5980000 100.8409408 129.1149408  12.4900000
 100.1829408 129.9779408  13.5460000 101.5199408 130.6549408  24.6330000
 101.7749408 131.4879408  24.2350000 100.7539408 130.3749408  24.1320000
 118.8309408 127.2719408   2.2880000 118.8699408 126.9779408   3.1980000
 119.5399408 126.7969408   1.8530000 102.8319408 126.0959408  25.8560000
 102.2219408 126.7999408  26.0740000 102.2899408 125.4319408  25.4300000
 112.0739408 129.3869408  29.4840000 112.9599408 129.0269408  29.4310000
 111.4999408 128.6319408  29.3590000 107.8369408 125.8009408  18.3520000
 108.7399408 125.6199408  18.0890000 107.7859408 126.7559408  18.3950000
 105.8959408 139.4069408  24.8660000 105.5879408 138.8379408  25.5710000
 106.8499408 139.3899408  24.9430000 102.3099408 137.8379408  18.4750000
 101.5999408 137.7869408  17.8350000 102.9599408 138.4099408  18.0670000
 111.5769408 130.0929408  13.5580000 110.8019408 130.5149408  13.9290000
 111.6999408 130.5189408  12.7100000  93.0429408 132.8729408  25.6090000
  93.5349408 132.7249408  24.8020000  92.7319408 132.0039408  25.8640000
 104.6799408 149.2389408  26.7010000 105.3729408 149.7719408  26.3100000
 104.3379408 149.7769408  27.4150000  95.6739408 143.6199408   0.0820000
  96.0949408 143.8689408   0.9050000  96.3839408 143.2649408  -0.4520000
  93.0279408 138.2679408   1.4330000  93.1569408 139.2159408   1.4620000
  93.8729408 137.9189408   1.1520000  95.6639408 128.1749408  18.2520000
  96.2629408 127.8789408  18.9380000  95.1889408 127.3859408  17.9920000
  95.9109408 126.2639408  23.1760000  95.8639408 125.3079408  23.1610000
  95.2579408 126.5469408  22.5370000  93.5549408 132.7819408   3.2750000
  92.7219408 132.4139408   3.5720000  93.4619408 133.7249408   3.4110000
 102.0799408 122.2879408  25.6550000 101.8949408 122.3419408  26.5920000
 101.6749408 123.0719408  25.2840000  93.4729408 129.6029408  27.1470000
  93.7089408 128.7169408  26.8730000  94.0979408 129.8149408  27.8400000
 110.1159408 123.8369408  15.0270000 110.6079408 124.5009408  14.5440000
 109.2639408 123.8059408  14.5920000  99.1499408 149.6889408  22.5040000
  99.9349408 150.2339408  22.5540000  99.1679408 149.3219408  21.6200000
 100.2899408 136.9219408  26.2360000 100.6129408 136.3839408  25.5120000
 100.5349408 137.8159408  25.9980000  95.6959408 126.5609408  27.9650000
  96.2729408 126.7839408  27.2350000  96.2299408 126.7069408  28.7460000
  99.0229408 130.0999408  23.4030000  98.3649408 130.6929408  23.7660000
  98.5369408 129.3039408  23.1870000  92.6359408 129.1879408  12.6550000
  92.1249408 129.8089408  13.1730000  91.9839408 128.6069408  12.2650000
 100.1199408 121.7629408   3.4120000  99.5699408 121.8339408   2.6310000
 100.9739408 122.0939408   3.1340000 105.5569408 145.5499408  26.2860000
 104.8219408 144.9969408  26.0220000 106.0899408 145.6339408  25.4950000
  97.1549408 127.1399408  25.5410000  96.6739408 127.0259408  24.7220000
  97.2739408 128.0859408  25.6200000 104.3109408 130.8199408  25.0000000
 103.4729408 130.6859408  24.5580000 104.6099408 129.9379408  25.2200000
 114.7679408 126.0699408  17.1460000 113.8289408 126.0299408  16.9640000
 115.1819408 125.7409408  16.3480000  95.1569408 131.4689408  15.1180000
  94.3929408 131.0489408  15.5120000  95.9069408 131.0229408  15.5130000
 106.3049408 137.8459408  18.6500000 106.4699408 138.5339408  18.0040000
 106.6669408 137.0539408  18.2540000 101.4229408 121.4139408  22.3640000
 101.7979408 121.2949408  23.2370000 102.1729408 121.6199408  21.8060000
  94.3739408 122.0349408  22.5920000  95.0449408 122.5869408  22.9950000
  93.7539408 122.6539408  22.2080000  97.8019408 136.5439408   7.0640000
  97.6149408 135.6139408   7.1890000  97.8329408 136.9049408   7.9500000
  99.5459408 134.8449408  27.9910000  99.9689408 135.6099408  27.6000000
  99.0599408 135.1949408  28.7380000  91.7749408 120.6259408  28.9360000
  92.5749408 121.0719408  29.2140000  91.1079408 121.3129408  28.9280000
 102.7309408 132.2139408  18.9580000 102.2289408 131.4239408  18.7610000
 102.6519408 132.7509408  18.1690000  93.0389408 147.9559408  28.5700000
  93.2659408 147.7619408  27.6600000  92.9049408 148.9029408  28.5870000
  98.8229408 139.2789408  28.8730000  99.0599408 138.7649408  29.6450000
  98.2279408 139.9509408  29.2050000 100.8119408 124.5099408  24.7060000
  99.9129408 124.5729408  25.0290000 100.7219408 124.4639408  23.7540000
  98.1589408 131.4079408  29.5170000  99.1069408 131.5379408  29.5250000
  97.9899408 130.8219408  30.2550000  97.4109408 128.2469408  22.5390000
  97.0039408 127.3889408  22.6570000  96.8979408 128.6629408  21.8460000
  95.9589408 122.4859408  29.6520000  95.4029408 122.4139408  30.4270000
  95.4749408 122.0279408  28.9650000 118.9339408 119.9049408  27.3680000
 119.3039408 120.6489408  27.8430000 119.4589408 119.8439408  26.5700000
 108.8269408 123.5309408  22.3500000 108.8589408 122.6169408  22.6340000
 109.3369408 123.5479408  21.5400000 103.0339408 134.4019408   3.2410000
 103.4299408 134.6769408   2.4150000 102.6019408 133.5729408   3.0360000
 104.6579408 121.6439408  24.3280000 105.2989408 121.5509408  25.0330000
 103.8909408 122.0299408  24.7510000  99.2199408 130.8319408  20.8010000
  98.2959408 130.9889408  20.6070000  99.2279408 130.5439408  21.7140000
  98.1889408 137.1529408  23.5900000  99.0689408 137.0679408  23.9560000
  97.9749408 138.0809408  23.6910000  97.2109408 128.0059408   5.3860000
  96.6419408 128.7579408   5.5510000  97.9689408 128.1489408   5.9520000
 120.1159408 128.1649408  11.4220000 120.1929408 127.2509408  11.1470000
 119.2939408 128.4639408  11.0340000 111.0649408 129.6399408   2.0140000
 111.5329408 129.0169408   2.5690000 111.5449408 129.6309408   1.1850000
  94.8949408 138.8529408   6.4910000  95.2919408 139.6979408   6.7040000
  95.4089408 138.5259408   5.7530000  90.8779408 149.1329408   1.2170000
  91.1779408 149.6449408   0.4660000  91.0379408 148.2229408   0.9670000
  96.9089408 124.5699408  15.4710000  96.4269408 125.1219408  14.8560000
  96.2819408 124.3849408  16.1700000 105.2509408 128.2789408  25.3330000
 104.5369408 127.6459408  25.4040000 105.7219408 128.2039408  26.1630000
 106.1519408 136.8349408   6.9130000 105.4469408 136.5409408   6.3350000
 105.7099408 137.0769408   7.7270000  91.6169408 129.6609408  25.2060000
  92.3259408 129.5369408  25.8370000  92.0529408 129.9679408  24.4120000
 105.4429408 120.1609408  13.2290000 106.1079408 119.5109408  13.4580000
 105.5879408 120.8799408  13.8430000 114.0269408 139.3799408  21.4100000
 114.2849408 138.4959408  21.6720000 113.1719408 139.5119408  21.8210000
 104.3959408 138.1949408  10.7400000 104.3709408 138.1429408  11.6950000
 104.2869408 137.2889408  10.4480000  95.1149408 124.0059408  26.8730000
  94.1869408 124.1409408  26.6820000  95.3489408 124.7299408  27.4530000
  94.5679408 132.7609408  23.3450000  94.5269408 133.7069408  23.4870000
  94.8839408 132.6679408  22.4460000 111.5419408 122.2789408  24.3060000
 111.1949408 122.1159408  23.4290000 111.4429408 121.4439408  24.7630000
 104.6329408 143.1429408  10.1660000 104.8209408 143.6079408   9.3500000
 104.7559408 142.2189408   9.9490000 105.3159408 132.0549408  16.3340000
 104.9349408 132.8129408  16.7780000 106.1729408 131.9419408  16.7450000
 112.2929408 137.8109408  23.8080000 112.1829408 137.0259408  24.3450000
 112.7159408 138.4419408  24.3890000  99.7159408 137.2639408   0.6440000
 100.4809408 136.8889408   0.2080000 100.0779408 137.7609408   1.3780000
  99.6429408 147.8269408  24.9720000  99.4569408 147.5769408  24.0670000
 100.3899408 148.4219408  24.9080000  97.2109408 131.8149408  24.3940000
  96.3699408 132.1359408  24.0660000  97.5599408 132.5409408  24.9100000
  90.1669408 128.8079408  20.3710000  89.8829408 128.0049408  20.8070000
  89.9809408 129.5029408  21.0020000 101.3649408 129.9299408  18.7550000
 100.7509408 129.2719408  18.4300000 101.2129408 129.9549408  19.7000000
 104.3869408 140.9349408   1.0510000 103.5169408 141.2199408   0.7720000
 104.8489408 140.7409408   0.2360000 100.7769408 129.9669408  15.3550000
 101.7099408 130.1599408  15.2610000 100.7469408 129.1889408  15.9110000
  93.5569408 127.1909408  26.0440000  94.3569408 126.6719408  26.1280000
  93.4109408 127.2549408  25.1000000 109.8279408 135.7489408  13.0870000
 110.5869408 135.7009408  13.6680000 109.2939408 134.9909408  13.3260000
  90.9909408 134.1799408  29.6390000  91.5389408 134.9439408  29.4570000
  90.9489408 134.1369408  30.5940000 101.3459408 133.1939408  28.8840000
 100.7059408 133.7409408  28.4290000 101.9039408 132.8469408  28.1880000
 118.4329408 121.3169408  17.7720000 118.3759408 120.3929408  18.0160000
 118.3789408 121.7879408  18.6040000 106.9629408 136.6139408  22.6300000
 106.8069408 137.5369408  22.8310000 107.8629408 136.5879408  22.3060000
 116.9299408 131.9079408   1.8610000 116.9209408 132.4829408   2.6270000
 117.6339408 131.2839408   2.0360000 105.8339408 123.3109408   1.4930000
 106.3929408 122.5349408   1.4550000 105.4889408 123.4019408   0.6050000
  90.8749408 123.4179408  23.9600000  90.5559408 122.5409408  23.7490000
  91.6379408 123.5389408  23.3940000 103.8929408 139.7199408  17.2500000
 103.8199408 140.5249408  16.7370000 104.7049408 139.3139408  16.9450000
 100.5189408 127.1779408  15.9270000 100.5439408 126.3239408  16.3590000
 100.1409408 126.9999408  15.0660000 105.9109408 147.6449408  20.9300000
 105.4609408 146.9469408  20.4540000 105.2979408 147.8989408  21.6190000
 105.5579408 124.1889408  26.1150000 104.8629408 124.8469408  26.1260000
 105.7909408 124.1009408  25.1910000  99.3779408 128.0839408  28.2570000
  98.8019408 128.1769408  27.4980000 100.1869408 128.5259408  28.0000000
  97.9469408 127.0969408  19.7360000  97.9239408 126.1409408  19.7090000
  98.7869408 127.3059408  20.1460000 106.8989408 149.9439408   5.6780000
 106.7499408 149.2089408   6.2740000 106.6159408 149.6199408   4.8230000
  99.8299408 147.2289408   5.4010000  98.9329408 147.4469408   5.1470000
 100.3679408 147.5429408   4.6740000 108.4289408 149.3959408  28.3290000
 107.9429408 148.5779408  28.2260000 108.7299408 149.3839408  29.2380000
  91.1219408 126.0539408   9.6410000  90.6489408 126.3209408   8.8530000
  91.9209408 126.5809408   9.6320000 101.1519408 142.9069408  20.7830000
 101.1849408 141.9589408  20.9060000 100.5209408 143.0349408  20.0740000
 101.0869408 145.7069408   7.3250000 100.8939408 146.1889408   8.1280000
 100.7599408 146.2699408   6.6230000 103.9669408 135.5319408   5.7910000
 104.1179408 134.5939408   5.6770000 103.3829408 135.7699408   5.0710000
  92.1679408 124.6769408  12.0900000  91.6919408 125.0179408  11.3330000
  91.8439408 125.1909408  12.8290000  99.7219408 148.0699408   8.6160000
  99.4219408 148.0619408   7.7080000  99.1469408 148.6979408   9.0530000
 101.7279408 140.3879408  21.2710000 101.6209408 139.5149408  20.8940000
 102.3419408 140.2629408  21.9960000 118.0529408 145.8899408  12.2050000
 118.2489408 146.7309408  12.6180000 117.0989408 145.8779408  12.1250000
 103.8599408 126.7389408   2.4700000 103.0679408 127.2019408   2.1940000
 103.5509408 126.0939408   3.1060000  94.9999408 149.5199408  18.2440000
  95.1339408 149.6689408  19.1800000  94.6149408 150.3359408  17.9240000
 100.5059408 139.8669408   6.1100000  99.8559408 139.5139408   5.5030000
  99.9949408 140.3779408   6.7380000 103.0909408 125.1259408   4.6640000
 103.6829408 125.1169408   5.4160000 102.3979408 124.5079408   4.8970000
  93.3269408 144.6049408  19.3680000  94.2059408 144.2289408  19.3230000
  93.4169408 145.4729408  18.9750000  90.0379408 141.4779408   4.6990000
  90.9309408 141.1549408   4.5830000  89.4899408 140.8369408   4.2450000
 105.7609408 145.8819408   4.7460000 105.6409408 145.0999408   4.2060000
 104.9199408 145.9989408   5.1890000 104.2179408 140.3289408  13.1910000
 104.4609408 141.2159408  12.9250000 105.0449408 139.9189408  13.4450000
 107.6079408 141.4719408  21.4500000 107.1129408 142.1989408  21.8280000
 107.2049408 140.6879408  21.8230000 102.8429408 144.9729408  21.9030000
 102.4879408 144.2539408  21.3800000 103.3269408 145.5089408  21.2750000
  94.6779408 142.4899408  16.5850000  95.2769408 143.2359408  16.6160000
  95.2109408 141.7439408  16.8610000  95.7979408 141.3969408   6.7650000
  96.4539408 141.7799408   7.3470000  94.9819408 141.4349408   7.2640000
 120.0089408 141.9419408  29.8560000 119.3139408 142.0199408  30.5100000
 119.9439408 141.0409408  29.5420000 107.4849408 147.6719408   7.7400000
 106.6389408 147.2889408   7.9700000 107.8719408 147.0489408   7.1250000
  92.3099408 138.7869408   5.5240000  91.6629408 138.6259408   6.2120000
  93.1549408 138.6519408   5.9530000 104.3059408 148.7819408   7.3720000
 104.7559408 148.1469408   7.9280000 103.9669408 148.2639408   6.6420000
 114.3189408 144.7159408  14.1060000 114.8969408 143.9829408  13.8980000
 114.5489408 145.3919408  13.4680000  96.4959408 138.9039408   2.3800000
  95.9039408 139.5189408   1.9470000  95.9969408 138.0889408   2.4350000
  95.8519408 147.3879408  29.9390000  95.2559408 147.5509408  29.2070000
  95.3619408 146.8089408  30.5230000 106.4369408 139.0669408  21.2430000
 106.5039408 138.3559408  20.6060000 105.6939408 139.5899408  20.9420000
  97.2649408 143.0889408   3.3920000  97.5729408 143.8519408   2.9040000
  97.6459408 143.1919408   4.2640000 100.3759408 143.4779408  17.1180000
  99.6279408 143.2069408  17.6500000 100.5139408 142.7509408  16.5100000
 105.4449408 145.1009408  14.0140000 106.2459408 145.2109408  13.5020000
 105.0809408 144.2679408  13.7140000  99.1669408 125.4379408   5.7480000
  98.8509408 125.6709408   4.8750000  99.4189408 124.5179408   5.6750000
  94.2729408 140.1469408  12.5690000  93.8439408 140.9559408  12.8460000
  95.0339408 140.0699408  13.1450000  93.2469408 135.4839408   3.2100000
  93.6359408 136.1419408   2.6340000  93.7999408 135.4919408   3.9910000
  94.1789408 137.7809408   8.9290000  94.2309408 138.1619408   8.0530000
  93.5919408 137.0319408   8.8310000 101.1639408 149.3629408  14.0990000
 101.9599408 149.0219408  14.5070000 100.8289408 150.0059408  14.7250000
 101.2709408 149.4239408   0.7540000 101.1439408 149.1009408  -0.1380000
 100.7259408 150.2099408   0.8040000 100.1639408 134.3359408  17.9330000
  99.7059408 133.4989408  17.8530000 100.9369408 134.2409408  17.3770000
  96.7049408 144.8669408   7.0240000  97.3139408 144.3839408   6.4660000
  96.0519408 145.2189408   6.4190000  90.7809408 137.7779408   3.0700000
  91.3749408 137.8329408   3.8190000  91.3059408 138.0689408   2.3250000
  96.9129408 146.0559408  13.0170000  96.7609408 146.9919408  13.1450000
  97.8609408 145.9539408  13.1010000  99.9689408 145.5049408  11.5150000
 100.0609408 146.2039408  12.1630000  99.5309408 145.9229408  10.7730000
 102.8559408 122.0519408   9.6080000 103.6339408 121.5559408   9.8640000
 102.6389408 122.5739408  10.3800000 100.9059408 142.2719408   1.9450000
 100.8709408 141.3879408   1.5790000 100.4339408 142.8129408   1.3120000
  90.6149408 134.7429408   2.4330000  89.9859408 135.4539408   2.5520000
  91.4659408 135.1429408   2.6100000 105.8529408 143.8829408   7.9390000
 105.9139408 143.7729408   6.9900000 106.7569408 144.0099408   8.2250000
  97.6779408 135.6369408  18.2270000  97.3809408 135.6059408  19.1360000
  98.4549408 135.0779408  18.2080000  94.3649408 142.5619408  10.9050000
  93.8259408 143.0119408  11.5560000  95.0559408 143.1889408  10.6910000
 101.6299408 143.2589408  11.2250000 101.9139408 143.2529408  10.3110000
 100.9499408 143.9319408  11.2610000  93.3079408 142.3489408  14.1740000
  93.6449408 143.1049408  13.6930000  93.8179408 142.3319408  14.9840000
 110.0859408 123.0319408   1.4180000 110.4329408 122.3479408   0.8450000
 109.2249408 122.7079408   1.6830000 118.1769408 122.4219408  20.1510000
 117.3749408 122.2089408  20.6290000 118.4289408 123.2859408  20.4760000
 109.2209408 148.9019408   9.3070000 108.6819408 149.2899408   9.9960000
 108.5979408 148.6619408   8.6210000  90.9919408 119.9949408  25.7370000
  91.7769408 120.0659408  25.1940000  91.2419408 120.3889408  26.5730000
  90.7819408 136.6869408  15.9170000  90.1779408 136.2529408  16.5200000
  90.3069408 137.4619408  15.6180000  96.7389408 144.1779408   9.9850000
  96.8389408 145.0859408  10.2700000  96.8689408 144.2079408   9.0370000
 100.4329408 121.4439408  15.7220000 100.5989408 121.4719408  16.6650000
 100.7079408 122.3039408  15.4050000 101.3089408 139.2199408  25.3400000
 102.0399408 139.3309408  24.7320000 101.4799408 139.8519408  26.0380000
  93.3309408 139.3729408  18.2010000  92.4419408 139.5659408  18.5000000
  93.8949408 139.6769408  18.9110000 116.3379408 128.5209408  14.7070000
 115.9319408 129.3879408  14.7270000 115.5999408 127.9109408  14.7000000
  93.1059408 141.9459408   8.1800000  93.4189408 142.7029408   8.6760000
  92.1519408 142.0229408   8.2010000 105.4369408 143.2539408  20.0090000
 106.0059408 143.1119408  19.2530000 105.0009408 142.4129408  20.1430000
  97.0619408 141.4499408   9.2770000  97.2629408 142.2119408   9.8210000
  96.5489408 140.8769408   9.8470000 102.4839408 146.0199408  29.2340000
 102.1589408 145.9759408  30.1330000 101.7009408 146.1619408  28.7020000
 102.0659408 148.8869408   9.7040000 101.2279408 148.5389408   9.3980000
 102.5209408 149.1529408   8.9050000 101.2699408 146.0949408  16.5260000
 101.8939408 146.0249408  15.8040000 101.2699408 145.2259408  16.9290000
 100.8659408 138.4719408   2.7640000 100.6719408 139.4039408   2.8690000
 101.5619408 138.2989408   3.3990000 103.6439408 120.4429408   1.8470000
 102.8629408 120.2199408   1.3410000 103.6489408 121.3999408   1.8730000
  93.1739408 120.5829408   4.5740000  94.1289408 120.6499408   4.5680000
  92.8779408 121.4079408   4.9580000  99.4209408 141.4549408   7.9740000
  98.8169408 141.4819408   8.7160000 100.2109408 141.8929408   8.2920000
 118.8549408 143.9129408  10.4620000 118.1329408 143.2899408  10.3720000
 118.5459408 144.5469408  11.1090000  99.8059408 135.8759408  21.7940000
  98.8959408 136.1509408  21.9020000  99.7489408 134.9669408  21.5000000
  97.9939408 141.3219408  14.6600000  98.8919408 141.3319408  14.9910000
  97.9779408 142.0019408  13.9870000 115.4639408 145.1709408   8.5830000
 114.5769408 145.4189408   8.3240000 115.9009408 144.9499408   7.7600000
 114.4759408 140.8279408  19.0240000 115.3199408 141.0919408  18.6570000
 114.7019408 140.2359408  19.7420000  98.2409408 139.7249408  25.2630000
  98.0479408 139.1849408  26.0300000  99.1959408 139.7239408  25.2030000
 102.9509408 121.3049408  12.5350000 103.5739408 120.6049408  12.7320000
 102.1069408 120.9639408  12.8300000 119.8429408 146.8959408   8.9490000
 119.2369408 146.1979408   8.6960000 120.4319408 146.4839408   9.5810000
 103.2739408 146.0209408   5.5640000 103.0779408 145.8549408   6.4860000
 102.5129408 145.6839408   5.0920000 103.9679408 143.1959408  12.7510000
 103.0609408 143.1179408  12.4530000 104.4749408 143.3119408  11.9480000
  97.9659408 143.2009408  24.6000000  98.6309408 142.7009408  24.1270000
  97.9549408 144.0549408  24.1660000 118.8189408 148.9629408  19.5480000
 119.3499408 148.7979408  20.3270000 117.9169408 148.8389408  19.8420000
  97.1999408 122.1849408  19.7970000  97.7519408 121.4189408  19.6400000
  96.4489408 121.8439408  20.2840000 106.6659408 132.2829408   1.1970000
 106.1439408 133.0379408   0.9240000 106.2319408 131.9649408   1.9890000
 101.4439408 135.8639408  23.9440000 102.0879408 136.3889408  23.4680000
 100.7859408 135.6379408  23.2870000 104.5009408 132.8519408   5.8720000
 104.3729408 132.6739408   6.8040000 103.6179408 132.8409408   5.5020000
 100.8959408 139.7499408   9.9370000 100.1039408 139.8069408  10.4710000
 101.6099408 139.9329408  10.5480000 109.0259408 134.6979408   5.6060000
 109.1789408 135.5409408   6.0320000 108.8219408 134.0999408   6.3250000
  96.7689408 148.4729408  14.2330000  97.3599408 149.2059408  14.4070000
  95.9639408 148.6979408  14.6990000  99.7699408 142.6009408  26.6800000
  99.2829408 142.6389408  25.8560000  99.7329408 143.4939408  27.0220000
 117.3529408 120.3099408  12.8330000 117.5099408 119.6729408  13.5300000
 117.9369408 121.0399408  13.0390000 102.1129408 138.3489408   7.7370000
 101.7449408 138.5769408   8.5910000 101.5649408 138.8179408   7.1070000
 114.6629408 139.5749408  12.4850000 114.9049408 138.8659408  13.0800000
 114.1909408 139.1409408  11.7740000  96.8329408 140.5419408  17.8900000
  97.4509408 139.8449408  17.6710000  96.2749408 140.1639408  18.5700000
 115.2199408 134.8659408   1.3530000 115.3179408 134.0859408   0.8060000
 114.4369408 135.3009408   1.0120000 108.8679408 147.6099408   3.3490000
 109.7269408 147.3279408   3.6620000 108.2529408 147.2769408   4.0020000
  98.3579408 124.1779408   1.8600000  98.4489408 124.8209408   2.5630000
  97.5369408 123.7239408   2.0540000 101.2019408 148.7629408   3.4690000
 101.2119408 149.5939408   3.9450000 101.6049408 148.9659408   2.6240000
  96.1329408 143.5059408  20.1000000  96.3269408 143.2889408  19.1880000
  96.9599408 143.8419408  20.4480000 100.2109408 148.4339408  11.9620000
 101.0079408 148.2959408  11.4500000 100.5229408 148.6039408  12.8510000
 107.3879408 142.3639408  27.4260000 107.6389408 142.8729408  28.1970000
 108.1209408 142.4709408  26.8190000  91.6809408 148.4499408   7.5820000
  92.3499408 147.9409408   7.1260000  90.8959408 147.9039408   7.5440000
 115.9239408 142.7609408  13.2040000 115.7279408 142.7439408  12.2670000
 116.0819408 141.8459408  13.4340000 109.3099408 146.6769408  14.0320000
 109.6109408 146.8749408  14.9190000 109.3619408 145.7229408  13.9680000
  93.3539408 144.7089408   9.0660000  93.7559408 145.5449408   9.3010000
  92.5179408 144.9489408   8.6650000  91.4129408 146.7549408   0.3960000
  92.1889408 147.0679408  -0.0690000  91.2349408 145.8959408   0.0140000
 119.6089408 147.8679408  15.3230000 120.1049408 147.1339408  14.9590000
 120.2649408 148.5469408  15.4810000 112.3659408 134.6299408   8.6880000
 111.7399408 134.6659408   9.4110000 113.1379408 135.0919408   9.0160000
  91.5119408 139.0599408  13.6060000  90.8219408 139.4449408  13.0660000
  92.0049408 138.5029408  13.0030000  93.9449408 146.8669408  18.1460000
  93.7629408 146.8199408  17.2080000  94.4529408 147.6719408  18.2510000
 103.2799408 142.0519408  15.6120000 102.3279408 141.9589408  15.6370000
 103.5199408 141.8259408  14.7140000 102.9559408 141.3659408   6.3640000
 103.4859408 141.8059408   5.6990000 102.4029408 140.7609408   5.8690000
  93.4409408 126.1809408   1.9050000  94.0029408 126.8479408   1.5100000
  93.9759408 125.7989408   2.6010000 107.0119408 143.5979408   0.0990000
 107.4669408 144.3679408   0.4400000 106.1409408 143.9179408  -0.1370000
  97.1949408 142.4749408  28.1130000  96.6079408 142.3649408  27.3650000
  98.0739408 142.3999408  27.7400000 108.2589408 132.5979408   7.4360000
 107.7069408 131.9699408   6.9700000 107.6589408 133.0499408   8.0290000
  90.1369408 123.5589408   5.8370000  89.9919408 122.6449408   5.5950000
  90.0729408 123.5669408   6.7920000 105.3399408 140.8529408  28.1340000
 104.7079408 141.5289408  27.8920000 106.1799408 141.1839408  27.8140000
 109.9039408 120.2909408  26.3150000 109.3069408 120.0529408  27.0240000
 110.2959408 121.1169408  26.5980000 116.3759408 143.1479408  22.1470000
 115.9069408 143.8409408  21.6830000 117.2419408 143.1299408  21.7400000
  98.6959408 124.9359408  26.2190000  98.5659408 124.8349408  27.1620000
  97.9669408 125.4869408  25.9330000  95.0549408 120.9999408  27.6170000
  95.2369408 121.8089408  27.1400000  94.9239408 120.3429408  26.9330000
 102.6159408 142.0489408  24.5270000 102.7129408 141.7699408  25.4380000
 103.1399408 141.4229408  24.0270000  94.7479408 146.4299408   2.0810000
  94.8309408 145.7089408   2.7050000  93.9279408 146.8609408   2.3190000
  99.2759408 146.4629408  14.7030000  99.7309408 146.2569408  15.5190000
  99.1089408 147.4049408  14.7520000 113.3719408 149.3539408  16.9710000
 113.3079408 148.3989408  16.9860000 112.9949408 149.6059408  16.1290000
 106.2559408 143.4489408  22.4580000 105.9049408 143.5529408  21.5740000
 105.4959408 143.5559408  23.0320000  96.9949408 135.9949408  20.7340000
  96.4209408 135.7369408  21.4560000  96.9939408 136.9519408  20.7580000
 106.4109408 147.9309408  16.0400000 106.7929408 148.4529408  16.7440000
 106.9819408 148.0879408  15.2870000 104.1419408 144.1589408  24.0840000
 103.6309408 143.3779408  24.2940000 103.5819408 144.6599408  23.4910000
 103.5379408 136.9969408  22.3460000 104.1009408 136.3869408  22.8230000
 103.4289408 136.5979408  21.4830000 103.4829408 139.4799408  23.5240000
 103.6019408 138.6709408  23.0260000 104.1959408 139.4769408  24.1620000
  95.5179408 140.8639408   0.6340000  94.6129408 140.9029408   0.3240000
  95.8689408 141.7369408   0.4600000  93.9199408 143.7329408  27.9040000
  93.7749408 142.7969408  27.7640000  94.6069408 143.7729408  28.5690000
 113.3409408 145.3679408  26.2690000 113.8739408 145.7849408  25.5910000
 112.6439408 145.9989408  26.4470000 111.0999408 147.1969408  26.2780000
 110.7519408 147.3389408  25.3980000 111.3499408 148.0699408  26.5810000
 104.6979408 145.7839408  19.6430000 104.8279408 145.7939408  18.6940000
 104.6369408 144.8559408  19.8670000 101.6579408 149.4879408  25.1230000
 101.5199408 150.2759408  25.6490000 102.5939408 149.3049408  25.2060000
  95.6269408 145.5319408  22.0670000  96.1349408 145.9269408  21.3580000
  95.2669408 144.7309408  21.6870000  98.4599408 122.5539408  24.9290000
  98.0919408 121.8119408  25.4080000  98.4689408 123.2689408  25.5650000
  93.5699408 140.9729408  27.9310000  92.6959408 140.8599408  27.5580000
  94.1639408 140.6609408  27.2500000 114.5209408 137.0009408  22.3890000
 115.1209408 136.3069408  22.6620000 113.6929408 136.7869408  22.8180000
 101.6979408 140.0789408  29.7730000 100.8099408 139.8989408  29.4640000
 102.0089408 139.2409408  30.1130000 100.6369408 141.0749408  15.7480000
 101.0509408 140.3259408  16.1760000 100.8889408 140.9959408  14.8280000
  97.8009408 137.6069408  26.9660000  97.9509408 138.0929408  27.7770000
  98.6709408 137.3129408  26.6970000 104.6939408 147.6009408  29.4540000
 103.7959408 147.3609408  29.6810000 104.6029408 148.1929408  28.7070000
 104.6019408 148.8039408  23.5100000 105.1489408 148.3629408  24.1610000
 104.6489408 149.7299408  23.7450000  98.0119408 145.6129408  29.1090000
  97.3469408 145.9979408  29.6800000  97.5689408 145.4959408  28.2690000
 107.2359408 145.8399408  24.2300000 107.9919408 145.7569408  23.6490000
 106.6439408 145.1399408  23.9550000 106.3829408 145.0279408  16.5230000
 105.9809408 144.9789408  15.6560000 106.6939408 145.9299408  16.5930000
  89.8979408 145.6919408  22.9550000  89.7849408 144.8959408  23.4740000
  90.8379408 145.7319408  22.7780000  98.7329408 145.2859408   2.7840000
  99.4529408 145.3559408   2.1580000  98.2929408 146.1349408   2.7390000
 116.7709408 123.6649408  22.7270000 116.7729408 122.8369408  23.2070000
 117.3549408 124.2339408  23.2270000  95.4859408 137.0279408  25.4590000
  95.3769408 136.1209408  25.7470000  96.3439408 137.2849408  25.7970000
  99.9189408 123.5539408  21.8240000  99.1149408 123.4609408  22.3350000
 100.5089408 122.8899408  22.1800000 101.3379408 148.9519408  27.8980000
 100.3879408 148.9459408  27.7800000 101.6909408 148.7969408  27.0220000
  98.4839408 132.6569408  12.7750000  98.7579408 133.2109408  12.0450000
  99.2489408 132.1129408  12.9640000  94.8689408 142.0059408   4.4930000
  95.4839408 142.3369408   3.8380000  95.3879408 141.9349408   5.2950000
  91.1839408 143.8679408   2.2820000  91.7039408 143.3719408   1.6500000
  91.6219408 143.7219408   3.1200000  91.2759408 140.9209408  22.3260000
  91.5259408 140.2529408  21.6880000  91.9619408 141.5849408  22.2600000
  97.4129408 146.2019408  20.0570000  97.4249408 146.6489408  19.2110000
  98.2419408 146.4469408  20.4690000 100.8449408 122.1909408  28.1290000
  99.9649408 121.9919408  27.8090000 100.7209408 122.4099408  29.0520000
 102.1609408 141.0939408  27.1720000 101.3539408 141.5889408  27.0280000
 102.4389408 141.3399408  28.0540000 111.6459408 145.8579408  19.2480000
 111.8839408 145.4889408  18.3980000 111.1379408 145.1669408  19.6750000
  91.9099408 146.0429408  26.4380000  91.0299408 146.3809408  26.2760000
  91.8099408 145.4669408  27.1960000 116.5009408 143.4099408   3.8900000
 117.2679408 143.2959408   3.3290000 116.1529408 144.2679408   3.6490000
 102.1069408 148.3369408  22.1520000 102.8629408 148.3479408  22.7390000
 101.9139408 149.2609408  21.9920000  96.9049408 149.6589408  24.4020000
  97.4049408 149.1249408  25.0190000  97.5369408 149.8999408  23.7250000
 105.8789408 122.1039408  21.6990000 105.5149408 121.9559408  22.5720000
 106.7829408 121.7959408  21.7610000  98.8949408 141.6709408  19.8570000
  98.2309408 141.5909408  19.1720000  98.9859408 140.7849408  20.2080000
 109.3409408 139.3989408  20.3370000 109.0289408 139.1119408  19.4790000
 108.5439408 139.5879408  20.8320000 104.5349408 123.3569408  28.7370000
 104.1719408 122.4879408  28.5610000 105.0539408 123.5609408  27.9590000
 107.1019408 135.7249408  25.9070000 107.7749408 136.4049408  25.8650000
 106.2939408 136.1989408  26.1020000 103.0649408 121.5539408  20.0000000
 103.9649408 121.6039408  20.3230000 102.9399408 120.6309408  19.7800000
  98.2529408 121.2669408  28.1430000  97.5959408 121.4079408  28.8250000
  98.1889408 120.3329408  27.9390000 100.1359408 142.0139408  23.1660000
 100.2959408 142.4989408  22.3560000 100.9959408 141.9489408  23.5810000
 108.4869408 128.0279408   1.6070000 109.1999408 128.3819408   2.1380000
 108.0509408 128.7999408   1.2450000 105.1319408 137.2609408  26.3960000
 105.2409408 137.6919408  27.2440000 104.5449408 136.5269408  26.5740000
  97.2789408 146.4109408  26.2950000  96.3539408 146.2849408  26.0820000
  97.7199408 146.4259408  25.4460000 104.4529408 140.9099408   3.7780000
 104.3679408 140.7669408   2.8350000 105.0229408 140.2019408   4.0770000
  97.1399408 147.5469408  17.6840000  96.8289408 147.2759408  16.8200000
  96.5409408 148.2459408  17.9460000 115.0939408 123.0129408  25.4040000
 114.7599408 122.6939408  24.5660000 115.6369408 122.2969408  25.7340000
 105.7979408 148.7229408   3.2530000 105.6619408 147.7969408   3.0530000
 105.1299408 149.1799408   2.7420000  99.0859408 121.1759408   1.1750000
  98.4019408 120.5059408   1.1510000  98.6729408 121.9539408   0.8020000
  98.0329408 149.1679408  10.5370000  98.6119408 148.8459408  11.2270000
  97.5109408 149.8489408  10.9610000 102.8329408 136.8609408  13.8650000
 102.4649408 135.9809408  13.9370000 102.1939408 137.3459408  13.3420000
  98.4229408 148.5869408  27.7970000  98.0969408 148.0029408  27.1120000
  98.0209408 148.2599408  28.6020000 103.1219408 135.2349408  26.3590000
 102.9999408 134.2859408  26.3360000 103.2029408 135.4879408  25.4390000
  95.5019408 120.1759408  20.8970000  95.1519408 120.8029408  21.5300000
  95.3639408 119.3209408  21.3060000 104.6709408 127.7959408   5.3550000
 105.3629408 127.6749408   4.7050000 104.3999408 126.9069408   5.5840000
 102.2429408 126.3459408   7.8770000 103.0639408 125.9189408   7.6340000
 101.5769408 125.9019408   7.3520000 100.7739408 126.2109408  29.9660000
 101.1209408 126.8889408  30.5450000 100.1539408 126.6719408  29.4000000
 114.9609408 135.1169408   6.4150000 114.0719408 135.3439408   6.1410000
 115.4919408 135.8699408   6.1570000 109.3769408 127.5459408  12.7920000
 109.5639408 127.9789408  11.9590000 108.9799408 128.2279408  13.3340000
 119.9389408 132.9329408  20.1570000 119.2409408 133.5489408  19.9330000
 119.5489408 132.0699408  20.0180000 113.4369408 128.0999408  14.6000000
 113.0629408 128.4679408  13.7990000 113.0709408 127.2169408  14.6520000
 117.4789408 123.9939408  10.6530000 117.3369408 124.2939408   9.7560000
 117.7139408 123.0699408  10.5640000 113.8419408 127.9109408  11.1330000
 113.2649408 128.4849408  10.6300000 114.5029408 127.6239408  10.5030000
 114.1399408 121.3499408  10.9420000 113.2239408 121.4689408  11.1920000
 114.1099408 120.7419408  10.2040000 112.8249408 141.8459408  29.9020000
 113.1099408 141.1609408  30.5080000 113.3979408 141.7459408  29.1420000
  90.0609408 126.7279408  17.5830000  90.7789408 127.3319408  17.7720000
  89.7179408 127.0209408  16.7390000 109.3879408 132.0239408   1.7080000
 108.4449408 132.1189408   1.5730000 109.5609408 131.0969408   1.5410000
 108.6229408 124.8899408  12.5080000 109.1929408 124.4829408  11.8550000
 108.9969408 125.7609408  12.6440000 118.2209408 143.3229408  14.8680000
 117.5639408 143.4529408  14.1850000 119.0359408 143.1649408  14.3900000
 117.7609408 122.7849408   3.9490000 118.2159408 122.0179408   3.6010000
 117.0409408 122.9349408   3.3370000 105.8699408 127.0169408   0.6600000
 105.2029408 126.8519408   1.3270000 106.4569408 127.6569408   1.0610000
 109.5339408 137.2399408  26.6460000 110.2919408 136.8729408  26.1910000
 109.5379408 136.8119408  27.5020000 115.9399408 125.4359408  14.7680000
 116.1589408 125.8389408  13.9280000 115.7629408 124.5199408  14.5560000
 115.4509408 126.9699408   5.4990000 114.8859408 126.2069408   5.3780000
 115.7639408 127.1789408   4.6180000  90.4629408 142.8909408  13.2580000
  90.2129408 141.9829408  13.0880000  91.3599408 142.8359408  13.5870000
 104.7979408 131.2589408  20.4950000 104.1209408 131.7319408  20.0110000
 105.3779408 131.9449408  20.8280000 108.4659408 143.8039408   9.1880000
 108.8379408 144.6159408   8.8460000 108.9149408 143.1109408   8.7040000
 106.7079408 127.0059408   3.8860000 107.1969408 127.5149408   3.2390000
 106.7849408 126.0999408   3.5860000  95.6159408 123.9159408  17.9620000
  96.1299408 123.4149408  18.5940000  95.1099408 123.2559408  17.4870000
 115.2969408 125.6169408  19.7390000 116.1719408 125.2819408  19.5430000
 114.9219408 125.8239408  18.8830000 100.5079408 127.1349408  20.9140000
 101.3479408 126.7929408  20.6060000 100.6289408 127.2549408  21.8560000
  95.4309408 128.9249408  13.3460000  94.5449408 128.8439408  13.6980000
  95.4069408 129.7229408  12.8170000 119.5329408 120.6999408   3.3760000
 120.1959408 120.7629408   2.6890000 119.1429408 119.8339408   3.2540000
 109.1209408 131.3209408  13.8360000 108.7309408 131.3989408  12.9650000
 108.7629408 132.0599408  14.3270000 113.4509408 136.6139408  17.9200000
 113.0099408 137.2459408  17.3520000 112.8429408 136.4799408  18.6470000
  91.2429408 145.3819408  11.0890000  91.8839408 144.7989408  10.6820000
  90.4409408 144.8619408  11.1370000  90.5589408 123.4369408   2.1060000
  90.9039408 123.9419408   1.3700000  89.6199408 123.3699408   1.9320000
 115.4529408 143.0009408   6.3470000 116.1639408 142.5919408   6.8410000
 115.8259408 143.1649408   5.4810000 109.8289408 132.1619408   4.8400000
 110.2879408 132.3219408   5.6640000 109.5549408 133.0299408   4.5450000
 108.0169408 127.0069408  27.2190000 107.3259408 126.5609408  27.7080000
 108.0999408 126.5049408  26.4080000 115.5609408 131.1319408  15.4750000
 115.1189408 130.5969408  16.1340000 114.8589408 131.6419408  15.0700000
  91.6959408 134.5629408   5.6540000  91.0739408 134.5129408   4.9270000
  91.7619408 133.6639408   5.9750000 116.7429408 123.6139408  17.8620000
 116.4659408 124.0829408  17.0750000 116.0469408 122.9769408  18.0200000
 111.6259408 139.4869408   1.2030000 112.4039408 139.0829408   1.5860000
 111.3859408 140.1789408   1.8190000 109.8959408 127.7829408  29.2340000
 109.4559408 127.5179408  28.4260000 109.2739408 127.5689408  29.9280000
 119.2179408 143.7659408   5.8380000 119.3659408 144.3189408   5.0710000
 119.4309408 142.8809408   5.5410000 111.2669408 120.7559408   8.5830000
 111.3999408 121.0999408   9.4660000 110.5919408 120.0849408   8.6870000
 114.1839408 124.4299408  29.2750000 113.9199408 125.0219408  28.5710000
 113.4349408 124.4179408  29.8720000 117.0209408 120.6149408  23.3560000
 116.1119408 120.3729408  23.1770000 117.4589408 119.7839408  23.5400000
 117.0549408 140.3509408  13.5330000 116.2059408 140.0659408  13.1960000
 117.4329408 139.5649408  13.9270000 113.3629408 125.0449408  11.8150000
 113.7649408 125.8809408  11.5770000 114.1039408 124.4649408  11.9930000
 114.9759408 121.0289408  20.1130000 114.6729408 121.3969408  19.2830000
 114.4759408 121.4979408  20.7810000 112.5319408 143.9129408  16.2690000
 113.3199408 143.8259408  16.8050000 112.8589408 144.0669408  15.3830000
 116.3219408 127.4929408  23.9420000 116.3019408 126.7529408  24.5480000
 117.1049408 127.9849408  24.1900000  90.1739408 131.8329408  11.6060000
  90.4409408 131.6049408  12.4960000  90.8999408 132.3529408  11.2630000
 115.7369408 139.1459408   8.1800000 114.8499408 139.1279408   8.5390000
 116.1869408 138.4239408   8.6170000 106.6539408 129.5689408   7.1000000
 106.2859408 129.1019408   6.3490000 107.5579408 129.2609408   7.1550000
 108.3429408 145.7469408   6.0430000 108.8659408 144.9999408   5.7510000
 107.5969408 145.7659408   5.4440000  94.7929408 145.8129408   5.2480000
  94.3529408 146.6369408   5.4600000  94.0799408 145.1949408   5.0880000
 113.2419408 143.1659408  10.4920000 112.9709408 143.7249408   9.7630000
 112.5509408 142.5069408  10.5570000 115.7379408 146.5139408  16.0000000
 115.5399408 145.6189408  15.7260000 114.8859408 146.8929408  16.2160000
  90.0309408 126.3349408   7.2890000  89.4529408 125.8939408   6.6650000
  90.7089408 126.7369408   6.7450000  95.4109408 121.6389408  14.1010000
  96.3529408 121.5459408  13.9540000  95.1199408 122.2449408  13.4200000
 110.9789408 131.3509408  28.1040000 111.4849408 130.7389408  28.6380000
 111.4719408 131.4199408  27.2860000 102.0409408 123.7889408   0.3090000
 101.4489408 124.5119408   0.1020000 102.7159408 123.8299408  -0.3690000
 114.4599408 122.0869408  17.5660000 114.6979408 122.1839408  16.6440000
 113.9199408 121.2969408  17.5930000  98.5499408 124.3989408  19.4280000
  99.1569408 124.0959408  20.1040000  97.8149408 123.7869408  19.4750000
 117.6739408 127.2299408  28.4930000 118.1929408 128.0039408  28.2730000
 117.5139408 126.7999408  27.6530000 111.2339408 121.7299408  11.0500000
 111.0569408 121.7479408  11.9900000 111.0979408 122.6329408  10.7630000
 112.1169408 126.2239408  16.4610000 111.5759408 126.8179408  16.9810000
 111.6809408 126.1839408  15.6100000 107.0459408 129.7769408  30.0950000
 106.9329408 130.7139408  30.2500000 107.3599408 129.7189408  29.1920000
 117.9949408 121.5439408   9.2960000 117.6689408 120.7739408   9.7610000
 117.5859408 121.4939408   8.4320000  94.1849408 139.2609408  15.5620000
  93.2749408 139.4589408  15.3410000  94.2369408 139.3929408  16.5080000
 111.5719408 136.0879408  19.4610000 111.2589408 136.5549408  20.2350000
 112.0279408 135.3219408  19.8100000 114.5889408 132.8039408  18.0590000
 115.3309408 132.2919408  17.7360000 114.9889408 133.5189408  18.5550000
  92.6959408 124.0899408  21.8710000  92.3059408 123.5869408  21.1560000
  92.9999408 124.8979408  21.4560000 119.8669408 142.4849408  23.7190000
 120.5199408 142.0109408  23.2050000 119.1229408 142.5889408  23.1250000
 112.9719408 149.7709408   6.6800000 112.3179408 150.1079408   7.2920000
 113.6439408 149.3789408   7.2390000 120.0319408 129.3559408   7.3470000
 119.0959408 129.2539408   7.5190000 120.1719408 128.9109408   6.5120000
 102.1399408 127.4559408  12.2220000 103.0799408 127.4309408  12.0430000
 101.9669408 126.6499408  12.7080000 117.9939408 128.9349408  18.7130000
 118.8849408 128.7869408  19.0320000 117.4419408 128.4079408  19.2910000
 115.9349408 141.0989408  28.9360000 115.4299408 141.0179408  28.1280000
 116.4369408 141.9069408  28.8260000  92.6369408 128.9269408   8.6340000
  93.0599408 129.1289408   9.4690000  91.7709408 129.3279408   8.7010000
  91.9669408 128.2519408  18.4270000  92.8179408 128.6559408  18.5950000
  91.4089408 128.5619408  19.1400000 117.5039408 125.9579408  12.6760000
 117.6349408 125.1329408  12.2080000 117.4329408 126.6169408  11.9850000
  96.0659408 123.5049408   3.3350000  95.7129408 124.3689408   3.5490000
  95.3759408 123.0859408   2.8200000 110.1629408 123.2489408   7.1740000
 110.7889408 122.6829408   7.6270000 109.4289408 123.3299408   7.7820000
 106.8479408 149.6619408  10.6200000 106.3209408 149.0759408  11.1630000
 106.2789408 149.8849408   9.8840000  95.8869408 130.2809408   5.3640000
  95.6359408 130.8369408   6.1020000  95.8729408 130.8659408   4.6070000
 112.0509408 147.8479408  21.3780000 112.2919408 147.3129408  20.6220000
 112.4079408 148.7149408  21.1820000 116.0049408 148.4509408  20.5770000
 115.3879408 147.8689408  20.1320000 115.6789408 149.3319408  20.3920000
 105.9519408 135.9449408   0.6750000 105.0699408 135.6069408   0.8280000
 106.3909408 135.2529408   0.1800000 112.1649408 127.7679408   8.6350000
 113.0789408 127.4839408   8.6030000 112.1279408 128.5239408   8.0490000
 114.3869408 130.8979408   7.2380000 114.6949408 131.3449408   8.0260000
 115.0989408 131.0059408   6.6070000 110.4669408 147.5979408  16.5020000
 110.0149408 148.4079408  16.7400000 109.9129408 146.9009408  16.8520000
 107.1799408 144.4859408  11.5940000 107.1339408 144.0919408  10.7230000
 107.8769408 145.1389408  11.5260000 117.1109408 127.9229408  10.7590000
 116.6699408 128.6599408  11.1820000 117.2859408 128.2279408   9.8680000
 114.4309408 128.2329408   0.1660000 114.9999408 128.8329408  -0.3160000
 114.9499408 127.9689408   0.9260000 117.6649408 137.8339408  20.4340000
 117.0099408 137.9209408  21.1270000 117.7929408 138.7259408  20.1110000
 110.4459408 125.7249408   5.9510000 110.6899408 124.9389408   6.4390000
 111.2809408 126.0999408   5.6680000  94.0989408 137.2339408  20.9040000
  93.5579408 137.6299408  20.2210000  94.7849408 137.8809408  21.0720000
 113.0409408 145.6989408   7.7480000 112.2169408 146.1149408   7.4950000
 113.0589408 144.8799408   7.2530000 105.0709408 123.1099408  11.9730000
 105.9309408 122.7019408  11.8700000 104.5769408 122.4959408  12.5170000
  91.2549408 126.8109408  14.1630000  90.3669408 126.7379408  14.5100000
  91.5479408 127.6809408  14.4330000  91.2039408 138.3319408   8.1590000
  91.7869408 138.4599408   8.9080000  90.4139408 137.9419408   8.5330000
 100.8509408 138.0429408  20.5640000 101.5169408 137.8769408  19.8970000
 100.6929408 137.1879408  20.9640000 115.3289408 133.5029408  11.5810000
 115.0329408 134.2309408  12.1270000 116.1189408 133.1829408  12.0170000
 117.1119408 147.8559408  14.3000000 116.6299408 147.3489408  14.9530000
 118.0099408 147.8809408  14.6300000 114.7879408 122.1149408   5.8990000
 114.1839408 121.3719408   5.9120000 115.6579408 121.7159408   5.9040000
 109.4179408 135.1679408  16.0930000 110.2329408 134.6729408  16.0060000
 109.6999408 136.0539408  16.3210000 117.7659408 133.5989408   3.8470000
 117.7389408 133.8419408   4.7720000 117.9009408 134.4269408   3.3850000
  95.1689408 134.5189408  16.3780000  95.8409408 134.4369408  17.0540000
  94.4199408 134.9079408  16.8290000 112.8469408 134.3839408  29.2860000
 113.0729408 135.2939408  29.4810000 112.3399408 134.4319408  28.4760000
 114.5049408 123.7859408   8.3370000 114.6659408 123.1259408   7.6630000
 115.3689408 123.9629408   8.7110000 117.8919408 135.9599408   1.8140000
 117.0629408 135.4949408   1.6950000 118.2699408 136.0039408   0.9360000
 111.4209408 125.9589408  13.7260000 110.7449408 126.4539408  13.2630000
 112.0389408 125.6999408  13.0420000  94.4059408 130.8699408   1.0480000
  93.6999408 131.4429408   1.3470000  95.1239408 131.0339408   1.6600000
 107.9489408 137.1749408  11.2960000 107.9059408 136.2389408  11.0990000
 108.8179408 137.2979408  11.6800000 115.4809408 131.9639408   9.4060000
 115.1199408 132.5119408  10.1030000 116.2799408 131.5939408   9.7810000
 117.2379408 124.9699408   8.0610000 117.3909408 125.8909408   8.2740000
 117.5609408 124.8749408   7.1650000 114.1389408 128.9709408  24.3760000
 113.4629408 128.4299408  23.9690000 114.9209408 128.4189408  24.3760000
 106.7859408 138.4209408   1.6810000 106.7219408 137.5299408   1.3370000
 107.4129408 138.8559408   1.1040000 112.8489408 133.5719408  19.9600000
 113.5609408 133.2709408  19.3950000 112.1069408 133.0129408  19.7290000
 113.2589408 120.4689408  14.2250000 113.7039408 119.7619408  13.7580000
 113.9489408 121.1049408  14.4120000  98.5139408 138.9249408   4.6940000
  98.4449408 137.9949408   4.9100000  97.8739408 139.0569408   3.9950000
  90.9149408 132.1979408   3.5130000  90.7669408 132.8599408   2.8380000
  90.2449408 131.5339408   3.3490000 106.2619408 125.6629408  11.8050000
 107.1559408 125.3529408  11.9450000 105.7269408 124.8699408  11.8260000
 115.2609408 122.5219408  15.1500000 116.1599408 122.1979408  15.2140000
 115.1129408 122.6349408  14.2110000 116.0369408 129.7699408  12.4210000
 116.3529408 129.1019408  13.0300000 115.0999408 129.8379408  12.6050000
 113.0209408 128.4339408   3.5050000 113.2149408 129.3699408   3.4500000
 113.4379408 128.1499408   4.3190000 108.3969408 121.7669408   4.5070000
 108.1719408 121.0319408   5.0770000 109.3529408 121.8069408   4.5340000
 117.9889408 129.2129408  25.4190000 118.5799408 129.2639408  26.1700000
 117.4759408 130.0199408  25.4620000 119.4079408 140.4649408  12.4830000
 118.5159408 140.4729408  12.8300000 119.2959408 140.4509408  11.5330000
 109.9099408 128.3669408  10.0660000 109.9099408 129.2509408   9.6990000
 110.6139408 127.9149408   9.6030000 112.6919408 131.3699408  26.1520000
 112.7639408 130.5559408  25.6530000 113.5839408 131.5479408  26.4510000
 112.3429408 137.8229408  13.7280000 112.4789408 138.5569408  14.3260000
 111.4959408 137.9999408  13.3180000 108.5539408 138.9259408  24.6820000
 108.7939408 138.2999408  25.3660000 109.3529408 139.4279408  24.5250000
  90.9789408 131.7839408   6.4660000  90.8059408 131.5689408   5.5490000
  90.8379408 130.9619408   6.9360000 108.5449408 126.2349408   8.9460000
 108.6869408 126.3049408   8.0020000 108.8589408 127.0669408   9.2990000
 107.5829408 122.1169408  11.6990000 107.5359408 121.9249408  12.6360000
 107.4419408 121.2719408  11.2740000 113.0879408 126.0449408   2.2860000
 113.1179408 126.9629408   2.5550000 112.5769408 126.0479408   1.4770000
 109.4299408 149.0179408   0.8690000 110.3869408 149.0099408   0.8630000
 109.1899408 148.4979408   1.6360000 113.0929408 124.5809408  26.6170000
 113.7929408 124.1529408  26.1250000 112.4559408 124.8409408  25.9520000
 119.4029408 141.3029408  16.8030000 119.1189408 142.1149408  16.3830000
 120.2919408 141.4879408  17.1050000 119.9999408 123.3119408   8.7350000
 119.2879408 122.6869408   8.8720000 119.6239408 124.1599408   8.9690000
  97.9229408 120.9289408   7.0610000  98.3859408 121.4039408   7.7510000
  97.6119408 121.6119408   6.4670000 116.0629408 126.2019408   2.8730000
 116.7759408 126.4759408   2.2960000 115.4759408 125.7009408   2.3070000
 115.4119408 140.8149408   1.5320000 115.4999408 140.9999408   0.5970000
 116.2239408 140.3649408   1.7650000 118.3659408 125.4669408  19.3010000
 118.8039408 125.9929408  18.6320000 118.0599408 124.6899408  18.8330000
 103.7059408 120.8079408  28.7940000 102.8089408 120.6749408  29.0990000
 104.2449408 120.6919408  29.5770000 110.9419408 124.3839408  17.7550000
 110.5819408 123.9059408  17.0080000 111.5239408 125.0359408  17.3640000
 109.5519408 133.4549408  29.3200000 109.6209408 132.9329408  30.1200000
 109.9389408 132.9039408  28.6400000 119.4049408 129.7769408   1.2160000
 119.7829408 129.6169408   0.3520000 118.8879408 128.9919408   1.4010000
 113.8139408 136.7889408  29.7140000 113.7769408 137.3819408  30.4640000
 114.6549408 136.9789408  29.2980000  92.6029408 136.3849408  27.6050000
  92.3689408 136.0419408  26.7430000  93.5349408 136.1849408  27.6980000
 111.4199408 133.2069408  24.2540000 111.6209408 132.3409408  24.6100000
 111.2789408 133.0559408  23.3200000 114.3839408 136.4509408  26.5200000
 114.4989408 137.3369408  26.1780000 114.0379408 136.5779408  27.4040000
 119.1759408 130.3779408  22.4850000 118.2839408 130.5879408  22.2080000
 119.0939408 130.1619408  23.4140000 117.5159408 131.6489408  18.8270000
 117.5849408 130.6959408  18.7670000 117.6049408 131.8379408  19.7610000
 118.1189408 133.0759408  23.9840000 118.7619408 132.6759408  24.5710000
 117.4529408 133.4369408  24.5690000  90.9759408 133.9229408  26.7960000
  91.2779408 134.0099408  27.7000000  91.7439408 133.6149408  26.3150000
 114.1129408 121.7349408  28.1150000 114.7809408 121.4299408  27.5010000
 114.4059408 122.6089408  28.3730000 111.7639408 133.3609408   2.3840000
 111.7739408 133.7069408   1.4920000 110.9559408 132.8499408   2.4340000
  90.6829408 124.4809408  26.5800000  90.8219408 124.3349408  25.6450000
  90.8769408 125.4089408  26.7100000 118.0309408 145.7699408   0.2010000
 117.6519408 146.3839408  -0.4290000 118.7909408 146.2309408   0.5560000
  92.9169408 130.2559408  22.9200000  92.3259408 130.8239408  22.4250000
  93.4999408 130.8599408  23.3800000 111.1939408 124.9999408  24.4080000
 110.3499408 125.2639408  24.7730000 111.2559408 124.0639408  24.5980000
 116.5439408 125.5789408  25.9390000 115.8209408 124.9659408  25.8060000
 117.3229408 125.0939408  25.6660000 118.7599408 148.1839408   3.0480000
 118.8759408 147.2849408   3.3560000 119.4779408 148.3219408   2.4310000
  92.6489408 127.0719408  23.3300000  92.9159408 127.8839408  22.8980000
  92.1039408 126.6239408  22.6820000 112.4329408 144.4709408   0.8190000
 111.6569408 144.3989408   1.3750000 112.5059408 143.6149408   0.3970000
 117.0089408 127.7539408  20.9100000 117.1639408 127.5669408  21.8360000
 116.1749408 127.3249408  20.7160000  93.2349408 138.6979408  24.7910000
  92.6099408 137.9739408  24.8150000  94.0829408 138.2909408  24.9680000
  95.1829408 135.2449408  28.7310000  95.2499408 134.6459408  27.9880000
  96.0909408 135.4169408  28.9820000 109.5569408 139.2589408   4.7920000
 109.8279408 138.5009408   4.2750000 109.5719408 139.9889408   4.1730000
 116.9399408 130.5709408   5.5480000 117.2969408 131.4359408   5.7460000
 117.5429408 130.2049408   4.9000000 112.1869408 127.3489408  23.2340000
 112.6329408 127.2299408  22.3960000 111.9849408 126.4599408  23.5270000
 113.0549408 146.8219408  15.9560000 112.1179408 146.8199408  16.1500000
 113.1779408 146.0819408  15.3610000 116.0829408 134.9759408  22.9120000
 116.8299408 134.5689408  22.4730000 116.1679408 134.7089408  23.8270000
  91.7139408 124.7479408   4.2270000  91.3929408 124.3309408   3.4270000
  91.0859408 124.4889408   4.9010000 116.7119408 148.8939408   1.2240000
 117.5319408 148.5429408   1.5710000 116.3319408 149.3829408   1.9540000
 114.2559408 143.5429408  18.3680000 114.2759408 142.7569408  18.9150000
 115.1489408 143.6239408  18.0320000 117.4089408 148.0439408  28.3580000
 116.8659408 148.5749408  28.9420000 118.0689408 148.6529408  28.0260000
  96.1619408 141.5309408  25.3790000  96.6229408 142.3089408  25.0660000
  96.8009408 140.8229408  25.2930000 114.1759408 138.5089408   1.7660000
 114.5339408 139.3739408   1.5650000 114.8279408 138.1069408   2.3410000
 115.2449408 135.1359408  19.2390000 114.6809408 135.3399408  19.9860000
 115.0279408 135.8009408  18.5860000 117.8889408 122.9389408   0.7890000
 117.1389408 122.3659408   0.9500000 117.5709408 123.8159408   1.0000000
 107.5889408 125.9449408  21.8650000 107.9269408 125.0509408  21.9150000
 108.2399408 126.4199408  21.3480000 108.6329408 123.7929408  27.6990000
 109.4459408 123.2949408  27.6140000 108.5859408 124.0199408  28.6280000
 119.2179408 131.7099408  26.2810000 119.3859408 131.1539408  27.0420000
 119.5759408 132.5639408  26.5240000 110.0679408 126.6019408  20.6770000
 110.4109408 125.7399408  20.4420000 110.8469408 127.1369408  20.8290000
 119.4139408 123.1659408  16.0720000 119.2369408 122.3849408  16.5970000
 118.9069408 123.8589408  16.4960000 116.1419408 132.3979408  27.6270000
 115.4329408 132.2329408  28.2480000 116.9029408 132.5879408  28.1750000
 107.8799408 127.6249408  24.1220000 107.7579408 126.6759408  24.0920000
 107.0159408 127.9709408  24.3480000 111.5639408 135.6829408  25.4200000
 112.2419408 135.5029408  26.0710000 111.3869408 134.8329408  25.0160000
 119.8499408 122.5939408  28.7080000 119.3119408 122.9239408  29.4270000
 119.7199408 123.2259408  28.0010000 114.0009408 124.7069408   5.0710000
 113.8849408 124.5229408   4.1390000 114.2479408 123.8649408   5.4530000
 118.6979408 124.9809408  23.9730000 119.2289408 125.6649408  24.3820000
 119.2709408 124.2149408  23.9480000  92.5169408 123.7909408  28.9940000
  92.3399408 124.7299408  29.0370000  92.0049408 123.4829408  28.2460000
  99.8899408 131.8059408  17.1790000 100.2009408 131.2239408  17.8720000
 100.1229408 131.3559408  16.3660000  92.2539408 135.9619408  24.7120000
  91.4929408 135.4689408  24.4070000  93.0069408 135.4519408  24.4130000
 110.1359408 136.2199408  28.9780000 109.9219408 135.3049408  28.7990000
 110.5769408 136.2019408  29.8280000 110.0029408 129.2039408  23.4090000
 110.8009408 128.6759408  23.4560000 109.3039408 128.6049408  23.6730000
 113.6059408 132.7209408  14.1930000 113.3069408 132.6279408  13.2890000
 113.8659408 133.6389408  14.2670000 111.9269408 138.4589408  27.4240000
 111.6859408 139.2179408  27.9550000 111.2059408 137.8409408  27.5460000
 110.6599408 140.6539408  28.5530000 110.8069408 140.9329408  29.4560000
 110.5649408 141.4699408  28.0610000 113.0969408 127.0939408  20.7320000
 113.5719408 127.7899408  20.2780000 113.5829408 126.2959408  20.5220000
  90.1209408 127.1739408  25.0360000  91.0009408 127.3079408  24.6820000
  89.6779408 128.0119408  24.9010000 111.2829408 124.2129408  10.2370000
 112.1709408 124.4309408  10.5200000 110.9569408 125.0169408   9.8310000
  95.2779408 131.5559408   7.5480000  94.8449408 130.9229408   8.1220000
  95.5749408 132.2489408   8.1370000  96.0519408 126.0389408  12.9900000
  96.7619408 125.9259408  12.3580000  95.9799408 126.9859408  13.1040000
 115.8779408 134.2189408  25.3820000 115.9199408 133.5969408  26.1090000
 115.3539408 134.9449408  25.7190000 116.9689408 146.1229408  22.1750000
 117.8909408 146.2139408  22.4190000 116.8059408 146.8519408  21.5770000
  90.5089408 129.7659408  13.8980000  89.8269408 129.7809408  14.5700000
  90.2249408 129.0889408  13.2830000 112.0069408 133.9469408  16.1180000
 112.6479408 133.3789408  15.6900000 112.4899408 134.3509408  16.8390000
 111.3509408 143.5839408  27.1550000 112.0519408 144.1379408  26.8110000
 110.8199408 144.1729408  27.6900000  93.1369408 135.9089408  17.4420000
  93.2879408 136.7359408  17.8990000  92.3239408 136.0479408  16.9560000
 114.1139408 123.7159408  21.1230000 114.5879408 124.4759408  20.7840000
 114.5419408 123.5189408  21.9560000  89.8739408 129.2279408  27.4500000
  90.4399408 129.4969408  26.7260000  90.4529408 128.7489408  28.0430000
 103.7419408 126.4529408  15.6390000 104.2449408 126.8479408  14.9270000
 103.4279408 127.1979408  16.1520000 118.1879408 132.5169408  29.3490000
 119.0379408 132.9559408  29.3450000 118.2049408 131.9679408  30.1330000
  93.9139408 134.3159408  20.0960000  93.3239408 135.0459408  20.2810000
  93.8699408 134.2069408  19.1460000 109.3529408 129.0949408  19.9650000
 108.9699408 129.8979408  20.3180000 109.1119408 128.4159408  20.5960000
 107.2159408 122.2419408  14.2630000 107.4569408 121.6839408  15.0030000
 106.9959408 123.0849408  14.6600000  95.4609408 134.3169408  26.1370000
  94.8509408 133.6819408  25.7600000  96.2679408 133.8219408  26.2740000
  96.1759408 123.6459408  23.8610000  97.0319408 123.4339408  24.2340000
  95.6269408 123.8449408  24.6190000  90.6509408 134.1239408  23.5250000
  89.7119408 133.9479408  23.5810000  90.9809408 133.4709408  22.9080000
  92.0539408 132.5049408  21.6720000  92.7779408 133.0489408  21.3630000
  91.3189408 132.7389408  21.1060000 117.4739408 128.2959408   7.3770000
 117.0789408 129.0559408   6.9490000 117.4529408 127.6089408   6.7110000
  94.6389408 128.2059408   0.3610000  94.5499408 129.1419408   0.5400000
  95.5799408 128.0399408   0.4160000  93.5789408 125.2939408  14.7230000
  94.2869408 125.7469408  14.2640000  92.8469408 125.9109408  14.7040000
 104.3679408 128.5949408  20.4910000 104.4269408 129.5469408  20.5680000
 104.3979408 128.4279408  19.5490000  92.4339408 149.4479408  21.3220000
  91.7669408 148.7629408  21.3040000  92.1439408 150.0829408  20.6670000
 109.6399408 137.0629408  21.6660000 110.2749408 137.2579408  22.3550000
 109.4069408 137.9179408  21.3040000 117.1349408 132.3819408  21.4320000
 116.3539408 131.8949408  21.6950000 117.7049408 132.3559408  22.2000000
  91.7099408 124.5589408  17.3620000  91.2679408 124.1129408  16.6390000
  91.0809408 125.2169408  17.6580000  93.7859408 123.1389408   5.5410000
  94.7399408 123.2159408   5.5740000  93.5029408 123.8839408   5.0110000
 112.3099408 130.3559408  21.7640000 111.7209408 131.1059408  21.6740000
 111.7629408 129.6659408  22.1410000 118.6129408 140.5529408  20.3810000
 119.2029408 140.8629408  21.0670000 118.5069408 141.3039408  19.7970000
 108.5159408 145.7009408   0.7170000 108.6129408 146.6029408   1.0230000
 109.1969408 145.5999408   0.0510000 114.3199408 135.3179408  13.4330000
 113.7379408 136.0469408  13.2200000 114.8819408 135.6559408  14.1310000
 112.5469408 135.5769408   4.2880000 111.8889408 136.0879408   3.8160000
 112.4899408 134.7009408   3.9070000 109.5539408 120.0589408  17.2370000
 109.8519408 120.3489408  16.3750000 108.6799408 120.4369408  17.3290000
 114.5779408 146.1839408  19.7680000 115.3119408 145.7339408  19.3490000
 113.8019408 145.8429408  19.3220000 111.9709408 149.7309408   4.2900000
 111.4919408 150.5529408   4.3860000 112.2929408 149.5359408   5.1700000
 109.7779408 143.9979408  13.5600000 110.2779408 144.1409408  12.7560000
 110.3799408 143.5269408  14.1360000 106.2369408 122.5929408   7.0360000
 106.4979408 121.7169408   6.7530000 107.0569408 123.0199408   7.2820000
 107.8549408 123.6489408   8.8230000 108.0219408 124.5789408   8.9790000
 107.6949408 123.2839408   9.6930000 110.3289408 144.1079408   2.8240000
 109.6049408 144.5969408   2.4350000 110.2499408 144.2699408   3.7640000
 111.6989408 120.0119408  19.4060000 112.3109408 119.7979408  18.7010000
 110.9559408 120.4209408  18.9620000 117.1489408 141.4149408   8.1260000
 117.0169408 141.9989408   8.8730000 116.3659408 140.8649408   8.1090000
 111.1139408 122.1109408   4.7390000 111.1109408 122.6599408   5.5240000
 111.5609408 122.6399408   4.0780000 112.0079408 130.1399408  16.2200000
 111.9829408 130.3189408  15.2790000 112.8879408 129.7949408  16.3750000
 106.6089408 138.0909408  13.3550000 106.7289408 137.5009408  12.6110000
 107.4469408 138.5439408  13.4390000 117.8639408 137.4319408   9.3610000
 117.7469408 137.2979408  10.3010000 118.3079408 138.2779408   9.2930000
  91.0329408 145.6039408  13.9710000  90.2089408 145.2399408  14.2930000
  91.2309408 145.0919408  13.1870000  91.9339408 149.6879408  18.6420000
  92.2469408 148.7839408  18.6550000  91.5109408 149.7829408  17.7880000
  91.1559408 138.4609408  20.0400000  90.2709408 138.7809408  19.8660000
  91.0349408 137.5459408  20.2950000  92.0799408 148.3339408   3.5080000
  91.6479408 148.7749408   2.7770000  92.4669408 149.0439408   4.0210000
 107.4589408 139.6149408   6.9330000 106.5709408 139.2699408   7.0270000
 107.7209408 139.3639408   6.0470000 115.5019408 145.3549408  28.7860000
 116.3499408 144.9159408  28.7100000 115.0439408 145.1329408  27.9750000
 116.6749408 137.5639408  13.5590000 116.2789408 137.7839408  14.4030000
 116.8119408 136.6169408  13.5990000 113.0439408 141.6259408  13.4910000
 112.5689408 141.6099408  12.6600000 113.9519408 141.4399408  13.2520000
 111.5259408 147.0239408   3.9340000 111.8329408 146.7029408   3.0860000
 111.8009408 147.9409408   3.9570000 112.5659408 143.1829408   6.2490000
 112.5139408 142.3989408   6.7960000 113.4839408 143.2299408   5.9820000
  92.7359408 143.2419408  21.7040000  92.8889408 143.6109408  20.8350000
  92.5469408 143.9999408  22.2570000 115.2289408 123.2469408  12.4100000
 114.8559408 122.6399408  11.7710000 116.0849408 123.4789408  12.0500000
  93.0529408 146.7679408  15.5720000  92.4119408 146.2939408  15.0430000
  93.1159408 147.6289408  15.1590000 114.1119408 141.8259408   3.7350000
 114.7569408 142.4489408   4.0690000 114.4369408 141.5849408   2.8680000
 115.3229408 136.5199408   3.7300000 115.4299408 135.8639408   3.0410000
 114.4889408 136.2979408   4.1450000  91.2079408 144.3789408  28.9760000
  90.7519408 143.5889408  29.2650000  92.1189408 144.1049408  28.8680000
 115.6729408 140.8899408  23.2500000 115.9379408 141.6929408  22.8020000
 115.0279408 140.4909408  22.6670000 118.0719408 135.0429408  14.1250000
 118.3279408 134.1539408  13.8810000 118.7059408 135.6059408  13.6790000
 111.4969408 137.6769408   8.9910000 110.6869408 137.9649408   9.4120000
 111.2069408 137.1699408   8.2330000 111.3089408 141.2979408  10.9070000
 110.3719408 141.3809408  11.0840000 111.3559408 140.9219408  10.0280000
 109.9409408 145.9629408  28.3800000 109.0549408 146.3189408  28.3170000
 110.3819408 146.2749408  27.5900000 112.7679408 139.3119408  17.3790000
 112.3009408 140.0629408  17.0110000 113.4259408 139.6989408  17.9570000
 109.7129408 141.5399408   7.5910000 109.1179408 140.8719408   7.2500000
 110.5109408 141.0599408   7.8100000 113.7039408 137.7479408  10.5130000
 114.1529408 136.9339408  10.2860000 112.9529408 137.7799408   9.9200000
 117.4709408 145.8359408   6.5070000 117.7579408 144.9329408   6.6370000
 117.3959408 145.9299408   5.5570000 117.1539408 145.2229408  18.8610000
 117.2309408 144.5909408  18.1470000 117.9429408 145.7599408  18.7930000
 118.9979408 135.2499408  17.3840000 118.6679408 135.0439408  18.2580000
 118.5579408 134.6249408  16.8080000 107.0249408 142.7099408  17.6690000
 106.8809408 142.0149408  17.0260000 106.7759408 143.5139408  17.2140000
 115.5159408 122.1409408   2.2740000 114.6969408 122.6339408   2.2290000
 115.2789408 121.3189408   2.7030000 117.8379408 136.4779408   4.9610000
 117.1649408 136.4449408   4.2810000 118.2269408 137.3489408   4.8720000
 108.1619408 131.4479408  18.1310000 108.1129408 131.6889408  19.0560000
 109.0279408 131.7449408  17.8520000 101.7949408 124.1809408  15.4660000
 101.0579408 124.3869408  16.0420000 102.4969408 124.7619408  15.7580000
 114.6279408 149.7129408   3.2650000 113.6809408 149.5999408   3.3410000
 114.9819408 149.3039408   4.0550000 114.1549408 148.4689408   8.6710000
 114.9869408 147.9959408   8.6860000 113.5239408 147.8559408   9.0480000
 117.6299408 148.3429408   7.5860000 117.5669408 147.3909408   7.5050000
 117.5549408 148.5079408   8.5260000 116.7179408 143.2369408  17.1170000
 117.0469408 143.5299408  16.2670000 116.4409408 142.3329408  16.9690000
 118.6429408 143.4169408   2.1320000 119.5469408 143.7219408   2.2000000
 118.2299408 144.0239408   1.5180000 108.1019408 149.3339408  13.8490000
 108.8249408 149.9569408  13.9170000 108.5209408 148.5029408  13.6270000
  90.8829408 135.8929408  20.9960000  91.0199408 135.6469408  21.9110000
  90.0429408 135.4959408  20.7640000 119.7119408 147.0349408  18.1520000
 119.5509408 147.4989408  17.3300000 119.2639408 147.5589408  18.8150000
  97.1339408 143.6299408  17.5170000  96.9599408 144.4419408  17.0430000
  97.4829408 143.0339408  16.8540000  94.8129408 140.6049408  20.3340000
  94.8989408 141.5329408  20.5520000  94.8869408 140.1529408  21.1740000
 115.3029408 146.0099408  11.7730000 115.0519408 145.5969408  10.9470000
 114.6769408 146.7259408  11.8830000 105.4609408 143.4619408   3.0360000
 105.9439408 143.2799408   2.2300000 105.3659408 142.6069408   3.4560000
 103.5109408 147.9189408  15.3630000 104.4469408 147.8499408  15.5500000
 103.2639408 147.0499408  15.0470000 115.1669408 145.1589408   1.8110000
 114.2559408 144.8679408   1.8270000 115.3879408 145.2049408   0.8810000
 111.1539408 147.1659408   6.5480000 111.4189408 146.9389408   5.6570000
 111.5359408 148.0299408   6.7000000 107.0539408 146.8609408  28.2050000
 106.3929408 147.1089408  28.8510000 106.5519408 146.4939408  27.4770000
 106.0469408 124.5639408  15.7710000 106.0809408 124.5099408  16.7260000
 105.4529408 125.2939408  15.5940000  92.8799408 147.4629408  12.2670000
  92.0239408 147.0379408  12.2150000  93.2679408 147.3299408  11.4030000
 118.6919408 139.2009408   3.8620000 119.5599408 138.8229408   3.7170000
 118.1619408 138.8679408   3.1380000 117.3199408 138.8899408   1.5420000
 117.8129408 139.1749408   0.7720000 117.3469408 137.9339408   1.5040000
  90.1709408 145.8719408   3.6420000  90.6029408 145.3299408   2.9810000
  90.8439408 146.4929408   3.9200000 111.9069408 140.2649408   8.2860000
 111.7919408 139.3209408   8.3890000 112.4119408 140.3589408   7.4790000
 110.8209408 145.7819408  11.5460000 110.6039408 145.9449408  10.6280000
 110.7959408 146.6459408  11.9560000 117.3569408 121.1799408   6.2670000
 117.6309408 121.6629408   5.4870000 118.0139408 120.4909408   6.3660000
 108.4929408 140.8929408  11.3400000 108.2899408 140.2629408  10.6490000
 107.8709408 141.6069408  11.2050000 117.5929408 148.9229408  10.4380000
 117.4519408 149.3709408  11.2720000 118.5019408 148.6269408  10.4740000
  99.8979408 148.3239408  17.5680000 100.5479408 147.6229408  17.5210000
  99.0609408 147.8869408  17.4100000  90.6229408 145.0849408  19.8260000
  91.5509408 144.8679408  19.9130000  90.5909408 145.7159408  19.1080000
 102.2699408 136.4249408  28.7760000 102.9509408 137.0969408  28.8060000
 102.4539408 135.9319408  27.9760000 119.5049408 129.6089408   3.9390000
 119.2369408 129.4409408   3.0360000 120.3389408 129.1489408   4.0320000
 114.9399408 148.5519408  12.8940000 115.6679408 148.0659408  13.2810000
 115.3499408 149.3119408  12.4820000 116.2609408 140.5759408  16.5330000
 115.9599408 139.7359408  16.1870000 117.1519408 140.4039408  16.8380000
  90.9209408 149.9589408   9.9480000  91.4189408 149.3979408   9.3520000
  90.0779408 150.0829408   9.5120000  90.1289408 120.2789408   6.1440000
  90.1339408 120.2069408   5.1890000  90.6739408 119.5509408   6.4420000
 110.1059408 146.3139408   8.9570000 110.3829408 146.3689408   8.0430000
 109.8789408 147.2129408   9.1940000 113.6379408 149.1839408  27.3740000
 113.8629408 148.6559408  28.1400000 113.7149408 150.0889408  27.6760000
 107.8029408 121.4979408   2.0150000 107.8179408 121.3079408   2.9530000
 107.9959408 120.6579408   1.5970000 111.2849408 141.4409408   3.2030000
 112.1909408 141.6019408   3.4660000 110.9289408 142.3109408   3.0260000
 114.8339408 138.1349408  15.5300000 115.1179408 137.2749408  15.8380000
 114.2629408 138.4619408  16.2250000 115.9399408 143.0769408  10.1740000
 115.0409408 142.8989408  10.4490000 115.8779408 143.8789408   9.6550000
  97.8459408 124.6539408  28.8310000  98.2209408 124.7389408  29.7070000
  97.3629408 123.8279408  28.8550000  90.5509408 143.0329408   8.3860000
  90.1859408 143.4379408   7.6000000  89.8569408 143.1109408   9.0410000
 111.0919408 122.8469408  27.7180000 111.6289408 122.2659408  28.2570000
 111.7059408 123.5029408  27.3870000 109.0939408 145.2559408  17.6310000
 108.8449408 145.5209408  18.5160000 108.5189408 144.5169408  17.4310000
 114.6889408 146.4959408  23.9890000 115.4609408 146.4079408  23.4300000
 114.0209408 145.9579408  23.5630000 109.7889408 147.3129408  23.2930000
 110.5389408 147.1429408  22.7230000 109.6029408 148.2449408  23.1720000
 116.0789408 148.6559408   5.3270000 116.5179408 148.9459408   6.1270000
 116.5309408 147.8469408   5.0860000 111.9989408 147.5469408   1.0180000
 112.9239408 147.6119408   0.7810000 111.7279408 146.6889408   0.6910000
 107.6129408 140.7449408   3.2240000 107.4149408 139.8939408   2.8320000
 107.7729408 141.3209408   2.4770000 118.7029408 143.2359408  20.3090000
 119.5569408 143.6369408  20.1500000 118.0819408 143.8059408  19.8540000
 109.1839408 142.3919408  19.3730000 108.8759408 142.0519408  20.2130000
 108.3959408 142.4469408  18.8330000 118.9259408 139.3549408  29.1130000
 118.4939408 139.0299408  28.3230000 119.7449408 138.8629408  29.1590000
 112.4529408 142.8319408  24.3870000 113.2899408 143.2969408  24.4070000
 111.9209408 143.3219408  23.7600000 119.3329408 140.1069408   9.6110000
 120.1389408 140.5079408   9.2850000 118.7129408 140.1949408   8.8870000
 119.7389408 121.2499408  22.7270000 119.9719408 120.5979408  22.0660000
 118.7969408 121.1349408  22.8560000 104.6139408 144.3099408  28.8680000
 103.7559408 144.7329408  28.8890000 105.0889408 144.7639408  28.1720000
  91.4839408 140.5129408  26.1210000  91.9909408 139.8839408  25.6070000
  90.8779408 140.9039408  25.4910000 116.4009408 130.1289408  29.6700000
 116.3809408 130.6799408  30.4520000 116.2529408 130.7369408  28.9450000
 119.0999408 146.4319408  25.9860000 118.5239408 146.4859408  26.7480000
 118.5919408 145.9469408  25.3350000 117.4289408 144.6289408  24.5640000
 116.6139408 144.5409408  24.0710000 117.3679408 143.9629408  25.2490000
 116.4519408 138.2429408  23.9800000 116.5979408 139.0739408  23.5290000
 115.5169408 138.0689408  23.8690000 116.6279408 125.1689408  30.1560000
 115.8039408 124.7719408  29.8740000 116.6229408 126.0389408  29.7570000
  92.8429408 145.7119408  23.1490000  93.7689408 145.4969408  23.0340000
  92.8479408 146.5679408  23.5780000 113.8769408 141.7659408  27.1800000
 114.5629408 142.2469408  26.7180000 113.0929408 142.3049408  27.0720000
 118.0669408 135.0089408  20.1910000 118.0739408 135.9439408  19.9830000
 117.1889408 134.8459408  20.5340000 116.0639408 137.5379408  28.8710000
 116.7539408 136.9079408  28.6660000 116.4249408 138.3839408  28.6060000
 119.9059408 148.0329408  21.8660000 119.3759408 148.3819408  22.5830000
 120.0419408 147.1129408  22.0930000 117.5559408 143.3009408  28.4550000
 118.1949408 143.8009408  28.9620000 118.0589408 142.9369408  27.7270000
 117.8099408 137.9179408  26.6380000 117.3599408 138.3039408  25.8870000
 117.8709408 136.9859408  26.4280000 110.8229408 140.4389408  24.5460000
 111.4419408 141.1659408  24.6110000 110.8099408 140.2179408  23.6140000
 116.1169408 120.6769408  26.5390000 115.8869408 120.0879408  25.8210000
 116.9099408 120.2969408  26.9170000 114.0979408 132.2559408  29.3850000
 113.7049408 133.1289408  29.3770000 113.3609408 131.6629408  29.5350000
  93.7959408 122.6399408   1.5360000  93.1589408 123.0979408   0.9870000
  93.2689408 122.0539408   2.0780000 119.0779408 142.0099408  26.4940000
 119.7929408 141.5059408  26.8830000 119.4689408 142.4279408  25.7270000
 116.4579408 142.1029408  25.8250000 117.2999408 141.6859408  26.0080000
 116.1359408 141.6579408  25.0400000 114.2699408 149.2149408  24.6630000
 114.2869408 148.9489408  25.5820000 114.4699408 148.4149408  24.1780000
 109.3969408 142.8279408  25.2380000 109.5079408 142.1059408  24.6190000
 110.1119408 142.7199408  25.8640000 110.7379408 123.9019408  20.2470000
 110.8629408 123.9519408  19.3000000 111.6089408 124.0529408  20.6130000
 119.0199408 148.8129408  24.3330000 119.8619408 149.1639408  24.6250000
 118.8459408 148.0819408  24.9260000 106.8359408 121.2099408  27.0900000
 107.4759408 120.5949408  27.4500000 107.1229408 122.0669408  27.4050000
 116.1579408 146.4039408   3.9090000 115.6669408 147.2129408   4.0520000
 115.8099408 146.0549408   3.0890000 107.0399408 148.4119408  24.8180000
 107.5809408 148.5059408  25.6020000 107.1749408 147.5059408  24.5410000
 113.6199408 144.9529408  22.0760000 112.8519408 144.5989408  21.6270000
 114.1499408 145.3379408  21.3780000 111.2529408 143.5169408  20.7880000
 110.5179408 143.0819408  20.3570000 110.8559408 143.9929408  21.5170000
  93.1729408 149.6979408  23.8650000  92.8949408 149.4999408  22.9710000
  93.6089408 150.5479408  23.7990000 114.4219408 129.4159408  20.1160000
 115.2529408 129.6309408  20.5400000 113.7539408 129.7569408  20.7110000
  92.7039408 141.1609408   0.5350000  91.8629408 141.6189408   0.5440000
  92.8899408 141.0209408  -0.3940000 108.5739408 146.5729408  19.9790000
 109.3969408 147.0059408  20.2050000 107.9349408 146.9379408  20.5900000
 113.9579408 121.6669408  23.3620000 113.0839408 121.9459408  23.6370000
 114.0009408 120.7409408  23.6010000 118.8059408 136.1259408  29.0390000
 119.4149408 136.8549408  28.9240000 119.3669408 135.3549408  29.1220000
 113.5929408 140.4459408   6.1030000 114.4549408 140.0469408   6.2220000
 113.6239408 140.8299408   5.2270000 111.0189408 141.9559408  17.3460000
 110.6409408 142.0609408  18.2200000 111.4569408 142.7889408  17.1720000
 119.3579408 126.4659408  21.7420000 118.9689408 126.1709408  20.9190000
 119.0259408 125.8529408  22.3980000  95.0389408 140.2599408  23.3180000
  95.4329408 140.8059408  23.9980000  94.2329408 139.9279408  23.7140000
 114.5659408 147.9129408  29.5880000 114.9279408 147.0679408  29.3220000
 115.1819408 148.2429408  30.2420000 112.3159408 120.6029408   0.0200000
 112.8489408 120.3259408   0.7650000 112.9519408 120.8169408  -0.6630000
  92.0639408 122.4419408  19.6400000  92.0359408 123.1009408  18.9460000
  91.3919408 121.8059408  19.3950000 106.0279408 149.2599408  18.5900000
 105.0909408 149.1729408  18.4130000 106.1359408 148.9249408  19.4800000
 110.3859408 144.2079408  23.2040000 110.0829408 145.1069408  23.3300000
 109.8389408 143.6859408  23.7910000  94.5629408 145.8619408  25.9740000
  93.6279408 146.0279408  26.0910000  94.7009408 144.9909408  26.3480000
 100.0009408 146.2329408  21.9690000 100.8279408 145.7619408  22.0740000
 100.2609408 147.1449408  21.8330000 103.1139408 149.2469408  18.1040000
 103.4209408 148.6579408  17.4150000 102.3449408 149.6749408  17.7280000
  94.1209408 133.6749408  43.7610000  94.0209408 134.4239408  44.3480000
  94.6659408 133.0579408  44.2490000 109.4019408 137.0039408  33.4620000
 109.3069408 136.1259408  33.8320000 108.6369408 137.1089408  32.8970000
 111.2879408 125.2629408  59.9310000 110.5409408 124.9539408  60.4440000
 110.9199408 125.9259408  59.3470000  96.9639408 147.2739408  34.1330000
  96.2589408 146.7169408  34.4630000  96.9889408 148.0129408  34.7410000
 111.1249408 121.1489408  51.7350000 110.9649408 120.2999408  51.3230000
 111.6349408 121.6379408  51.0890000  96.7109408 138.7099408  51.4700000
  96.3839408 139.3649408  52.0880000  97.6529408 138.8729408  51.4250000
 101.8849408 131.9679408  42.0810000 101.2899408 131.2449408  42.2800000
 102.7569408 131.5759408  42.1090000  95.8789408 126.9689408  38.7010000
  95.4139408 126.1719408  38.4480000  95.9029408 127.4959408  37.9020000
 105.1049408 137.8279408  45.6050000 104.2939408 137.6459408  45.1300000
 105.7899408 137.7719408  44.9380000  90.6359408 134.0729408  38.5360000
  89.8129408 134.3929408  38.1640000  90.9089408 133.3719408  37.9450000
 108.8559408 138.6129408  39.2840000 108.4689408 138.1719408  40.0410000
 108.1489408 139.1559408  38.9360000  99.0639408 128.6819408  47.8260000
  98.4579408 128.2489408  48.4280000  99.3939408 127.9759408  47.2700000
 101.2259408 131.3479408  35.7040000 100.6419408 131.7979408  36.3140000
 101.6789408 130.6969408  36.2400000 107.4669408 135.2269408  47.9080000
 107.9479408 135.1439408  48.7320000 108.1319408 135.1079408  47.2300000
 112.0799408 129.5039408  36.3360000 111.9909408 129.7379408  35.4120000
 112.7389408 130.1109408  36.6740000  95.6149408 133.6859408  38.9500000
  95.7649408 133.7169408  39.8950000  94.7539408 134.0859408  38.8300000
 119.3079408 138.9599408  45.2020000 119.6479408 139.5329408  45.8900000
 119.8979408 139.0979408  44.4610000  92.5329408 127.1629408  58.8470000
  93.2739408 127.5749408  59.2930000  92.8629408 126.9599408  57.9720000
 102.9309408 145.5519408  44.1980000 103.8639408 145.3599408  44.1090000
 102.5239408 145.1209408  43.4470000 118.0369408 125.5629408  35.5490000
 117.0969408 125.6829408  35.4130000 118.2159408 124.6789408  35.2300000
 108.3629408 141.3589408  30.6810000 107.7089408 142.0489408  30.5670000
 108.2789408 140.8169408  29.8970000 100.6849408 135.9839408  36.6650000
 101.1339408 136.8249408  36.7490000  99.8769408 136.0929408  37.1670000
 108.4319408 124.8569408  55.0460000 108.1149408 124.5139408  55.8810000
 108.3719408 124.1159408  54.4430000 118.7999408 129.9389408  45.7730000
 117.8609408 129.9999408  45.5990000 118.8569408 129.5959408  46.6650000
  92.3889408 140.7699408  33.8460000  93.1819408 141.3059408  33.8470000
  92.6729408 139.9199408  34.1820000 107.9779408 134.4559408  40.6650000
 107.2519408 134.3639408  40.0480000 107.7039408 133.9559408  41.4340000
  99.6549408 144.0029408  60.1860000  99.0479408 144.5939408  59.7410000
 100.5229408 144.3469408  59.9750000 103.5299408 134.6779408  30.5350000
 102.9009408 133.9769408  30.7060000 103.0779408 135.2629408  29.9270000
 106.9329408 142.0279408  43.3670000 107.2779408 142.9039408  43.1980000
 107.6629408 141.4399408  43.1730000  94.4319408 148.7859408  56.2340000
  94.8979408 148.1089408  55.7430000  93.7839408 149.1269408  55.6170000
 101.7599408 143.1179408  38.5430000 101.6899408 143.8819408  37.9720000
 102.0759408 142.4179408  37.9710000 104.5309408 146.0489408  31.8910000
 105.1549408 146.0429408  31.1650000 104.9719408 145.5639408  32.5890000
  91.5889408 127.8679408  35.1380000  91.9129408 127.0799408  34.7030000
  92.3749408 128.2939408  35.4810000  94.3779408 121.6949408  46.6380000
  93.4469408 121.8319408  46.4640000  94.7679408 121.5709408  45.7730000
 106.9779408 134.3809408  58.3850000 107.8199408 133.9829408  58.6060000
 107.1409408 134.8459408  57.5640000 101.0189408 122.1809408  48.1460000
 100.7569408 123.1019408  48.1390000 101.6919408 122.1279408  48.8240000
 105.1549408 120.6799408  38.8720000 104.7649408 121.4279408  38.4200000
 105.0899408 119.9599408  38.2450000 105.4189408 134.0349408  43.0950000
 104.8099408 133.9809408  43.8320000 104.8679408 134.2559408  42.3440000
  96.8749408 146.9259408  39.7580000  97.0919408 147.8089408  40.0560000
  97.0169408 146.9499408  38.8120000 102.2769408 129.0759408  56.9600000
 101.8759408 129.8269408  56.5240000 102.9859408 129.4519408  57.4820000
 118.5349408 135.5709408  37.6430000 118.4489408 136.1489408  36.8850000
 118.1879408 136.0809408  38.3750000  98.3539408 126.3839408  33.5020000
  99.0179408 126.9059408  33.0520000  97.9879408 126.9769408  34.1590000
 114.3849408 129.4109408  47.3650000 114.7209408 128.5179408  47.2950000
 114.2909408 129.5589408  48.3060000  97.7939408 133.7699408  37.0920000
  97.1589408 133.5089408  37.7590000  98.3649408 133.0079408  36.9930000
  99.0859408 122.8069408  42.3010000  99.2659408 123.2629408  41.4790000
  99.7729408 123.1059408  42.8980000 105.8509408 133.9929408  39.0110000
 105.1649408 134.5659408  38.6690000 105.4019408 133.1709408  39.2080000
 112.4549408 123.6049408  32.6640000 111.6819408 123.5749408  32.1000000
 112.7979408 124.4919408  32.5530000 111.2289408 140.5009408  44.9470000
 110.8759408 141.0379408  45.6570000 111.9479408 141.0209408  44.5870000
  97.2079408 128.2029408  59.8520000  97.3599408 128.7419408  60.6280000
  98.0649408 128.1409408  59.4310000 100.4099408 145.8839408  56.7950000
 100.4019408 146.2829408  55.9250000  99.6159408 146.2129408  57.2170000
 101.1919408 146.2969408  31.5580000 101.2509408 147.2469408  31.6600000
 101.6389408 145.9449408  32.3270000  94.6869408 123.6109408  42.3470000
  93.8339408 123.9499408  42.0730000  95.2309408 124.3909408  42.4540000
 103.1469408 132.3189408  57.0580000 103.5739408 132.0469408  56.2450000
 103.8619408 132.4039408  57.6880000 101.3659408 140.8169408  42.9800000
 101.3449408 141.5859408  42.4090000 102.2869408 140.5579408  42.9990000
 105.5709408 124.5019408  53.2080000 106.1229408 125.1429408  52.7600000
 105.2669408 123.9189408  52.5130000 104.5329408 139.5259408  37.8070000
 104.0209408 138.9609408  38.3850000 103.9069408 140.1799408  37.4950000
  94.9169408 134.0799408  36.0540000  95.2429408 133.2809408  36.4690000
  94.3959408 134.5079408  36.7330000 101.9419408 124.9309408  48.4310000
 102.8109408 125.3169408  48.3240000 101.7659408 124.9919408  49.3700000
  92.9999408 143.7209408  34.9930000  92.5599408 143.1309408  35.6050000
  93.7909408 143.2499408  34.7310000  99.3909408 125.9979408  43.5600000
  98.4679408 125.8209408  43.7410000  99.5449408 125.6099408  42.6990000
  96.4589408 139.0469408  44.2110000  95.7969408 138.9559408  44.8960000
  97.0899408 139.6709408  44.5690000 102.7269408 124.7419408  43.0350000
 103.5559408 124.2759408  42.9230000 102.3699408 124.4009408  43.8560000
 100.9189408 135.5149408  41.9010000 100.0709408 135.1079408  41.7250000
 100.7289408 136.4519408  41.9560000 101.2779408 128.6519408  39.3500000
 101.3409408 127.9429408  39.9910000 100.6729408 129.2789408  39.7440000
  97.3769408 148.8119408  31.6800000  96.6809408 148.2869408  31.2850000
  97.2869408 148.6599408  32.6210000 105.6899408 138.6069408  34.5490000
 105.8669408 138.6029408  33.6090000 106.2479408 137.9129408  34.9010000
  96.0069408 120.8799408  34.4630000  96.8559408 120.4709408  34.2940000
  96.1609408 121.8149408  34.3310000  99.4119408 128.7209408  36.5640000
  99.9009408 128.4549408  37.3430000 100.0189408 129.2819408  36.0810000
 100.9679408 138.3959408  45.9660000 101.6029408 137.8829408  45.4660000
 100.1389408 137.9329408  45.8490000  99.0729408 130.0809408  39.9790000
  99.3089408 130.3209408  40.8750000  98.1399408 129.8699408  40.0250000
  98.6629408 143.0849408  35.7270000  99.1639408 142.7029408  36.4480000
  99.3049408 143.2099408  35.0280000 102.1909408 123.0269408  36.6490000
 102.5829408 123.5069408  37.3790000 102.8259408 122.3399408  36.4440000
  92.7639408 130.3209408  45.9390000  92.1979408 130.7929408  45.3280000
  92.1579408 129.8679408  46.5260000  93.7929408 125.9289408  48.5460000
  94.5359408 125.3939408  48.2680000  93.0419408 125.5539408  48.0850000
  97.2649408 125.4869408  40.7700000  96.6499408 126.0649408  40.3180000
  97.6409408 124.9459408  40.0760000  94.4899408 124.3149408  38.6110000
  93.8189408 123.6769408  38.8510000  94.7519408 124.0669408  37.7250000
 108.2059408 131.1969408  41.0920000 108.7899408 131.1579408  40.3350000
 107.3289408 131.0939408  40.7250000 102.6159408 122.7419408  32.6460000
 102.2479408 123.1119408  31.8440000 103.2749408 123.3789408  32.9240000
 113.6789408 139.2509408  55.6230000 112.9449408 138.9459408  56.1550000
 114.0749408 139.9529408  56.1400000  93.9959408 130.0319408  49.2360000
  94.7059408 129.4889408  48.8920000  94.1359408 130.8909408  48.8370000
 103.6049408 129.6929408  33.1680000 104.0819408 128.9459408  33.5280000
 104.2209408 130.4239408  33.2310000 100.6809408 131.2849408  30.4750000
 100.9629408 131.9649408  29.8630000 100.5939408 131.7389408  31.3140000
  96.1979408 148.7859408  37.3920000  95.6229408 149.3219408  37.9370000
  96.9389408 149.3569408  37.1890000 105.6389408 126.6119408  38.9870000
 105.6199408 126.6119408  39.9440000 106.5409408 126.8459408  38.7660000
 106.1629408 140.3279408  39.8410000 105.8969408 140.1039408  38.9500000
 105.7949408 139.6309408  40.3840000 108.8369408 139.6889408  43.6890000
 109.6529408 139.8079408  44.1740000 109.0429408 139.9709408  42.7980000
 112.1589408 131.9809408  38.6940000 112.2029408 132.9319408  38.6020000
 112.8179408 131.6489408  38.0840000  91.5759408 121.8369408  42.3790000
  91.6699408 121.3979408  41.5340000  91.7809408 122.7539408  42.1980000
  99.7979408 133.5629408  50.7020000  99.9119408 132.6129408  50.6900000
 100.2249408 133.8659408  49.9000000  95.8779408 131.1339408  58.3530000
  96.6849408 131.2089408  58.8610000  95.1959408 130.9759408  59.0060000
 102.6309408 133.1459408  44.3340000 102.2629408 133.3379408  43.4710000
 102.9819408 132.2589408  44.2530000 100.1429408 128.5439408  32.9460000
 100.7999408 128.6049408  32.2530000 100.5939408 128.8529408  33.7320000
  94.7069408 135.4199408  53.1280000  94.5639408 135.8999408  52.3120000
  94.9709408 136.0909408  53.7570000  92.9149408 136.4549408  44.3630000
  93.5279408 137.1049408  44.7050000  92.2449408 136.3749408  45.0420000
  99.9729408 121.6209408  39.1660000 100.8859408 121.7839408  38.9290000
 100.0159408 121.2549408  40.0490000 102.5159408 129.3919408  37.0440000
 102.9239408 128.9559408  36.2950000 102.6179408 128.7729408  37.7670000
 110.6819408 134.5549408  40.8580000 110.4699408 134.9719408  41.6930000
 109.8309408 134.3559408  40.4670000 108.2509408 130.8129408  57.5970000
 107.9399408 130.8729408  56.6940000 109.1989408 130.9269408  57.5330000
  95.0659408 132.1979408  48.1450000  95.8319408 131.7159408  47.8330000
  94.6889408 132.5859408  47.3550000  94.4699408 126.9909408  51.0950000
  94.3759408 126.7169408  50.1820000  94.4599408 127.9469408  51.0610000
 106.7989408 128.8369408  51.9130000 106.1259408 128.2629408  51.5470000
 107.3839408 128.2479408  52.3890000 107.3339408 121.3149408  47.3720000
 107.1459408 122.1649408  47.7700000 106.5919408 120.7639408  47.6200000
  94.3569408 144.6489408  43.1330000  95.1819408 145.0809408  42.9100000
  93.8739408 145.2999408  43.6410000  96.0859408 134.8579408  41.4430000
  95.4669408 135.3769408  40.9300000  95.9959408 135.1919408  42.3360000
 103.4409408 136.1729408  38.5040000 103.3789408 135.9409408  37.5780000
 102.7799408 136.8539408  38.6260000  98.5019408 124.1379408  38.6120000
  98.8629408 124.4539408  37.7840000  98.9809408 123.3279408  38.7890000
  99.2219408 149.9579408  49.5540000  99.1209408 149.3189408  48.8490000
  99.7729408 150.6449408  49.1780000  95.8979408 146.1729408  45.7840000
  94.9769408 146.4009408  45.6590000  96.2559408 146.1269408  44.8980000
  94.1719408 128.0399408  36.5580000  93.5999408 128.3309408  37.2680000
  94.3229408 128.8259408  36.0330000 110.9309408 128.1219408  47.8530000
 110.4899408 128.4399408  48.6410000 111.2959408 128.9089408  47.4480000
  93.5469408 149.1949408  44.3880000  93.4529408 148.7309408  43.5560000
  94.0779408 149.9629408  44.1760000  97.6459408 135.5889408  30.5610000
  98.1379408 134.9059408  31.0160000  98.1499408 136.3889408  30.7110000
  99.7719408 122.8839408  35.6410000 100.6209408 122.7349408  36.0590000
  99.7999408 122.3549408  34.8440000  99.0259408 136.3989408  45.6100000
  98.7289408 136.0099408  46.4320000  98.4029408 136.0809408  44.9560000
 114.9449408 130.7089408  52.4340000 114.4059408 130.1399408  52.9830000
 114.3479408 131.3989408  52.1430000 102.9919408 126.0789408  50.9050000
 103.2669408 126.9929408  50.8340000 103.4549408 125.7489408  51.6750000
 103.9919408 130.0189408  59.0960000 104.7189408 129.4589408  59.3680000
 104.3539408 130.5539408  58.3890000 105.0069408 127.1169408  58.0480000
 105.2319408 127.0419408  58.9750000 104.1499408 126.6969408  57.9740000
 109.7759408 137.0209408  36.7930000 109.6259408 137.7959408  36.2530000
 109.1299408 137.0889408  37.4960000 114.9269408 135.3199408  39.5870000
 115.3159408 134.5869408  40.0650000 115.3279408 135.2809408  38.7190000
  95.7419408 131.5499408  42.2860000  95.5099408 131.7689408  43.1890000
  96.5849408 131.9799408  42.1450000 119.0709408 122.3679408  43.5800000
 119.1899408 122.7229408  44.4610000 119.9599408 122.2269408  43.2550000
 105.3469408 127.8619408  43.5700000 105.5059408 127.1419408  42.9600000
 106.2199408 128.1279408  43.8590000 103.9419408 147.7469408  41.2050000
 103.6119408 147.6369408  42.0970000 103.2129408 148.1429408  40.7270000
  91.1999408 137.8119408  59.4490000  91.9049408 138.0979408  60.0290000
  91.6469408 137.3699408  58.7280000  92.4759408 133.4329408  41.5170000
  92.9669408 133.3179408  42.3310000  92.3929408 134.3819408  41.4200000
  94.0809408 130.9719408  40.1910000  93.3579408 131.5829408  40.3280000
  94.6869408 131.1519408  40.9110000  92.4699408 122.2689408  39.4860000
  91.9209408 123.0069408  39.2190000  91.8819408 121.5139408  39.4670000
  93.0199408 136.0899408  41.5960000  92.9749408 136.1599408  42.5500000
  93.1089408 136.9939408  41.2930000 102.5739408 134.1909408  46.7410000
 102.6879408 133.7449408  45.9010000 103.3929408 134.6689408  46.8720000
 105.7109408 132.0629408  58.0250000 106.5479408 131.6029408  58.0980000
 105.9129408 132.9669408  58.2670000  99.4949408 135.9309408  33.8740000
  99.7659408 135.7989408  34.7830000  99.9059408 136.7569408  33.6190000
  98.0449408 138.2839408  47.2700000  97.8129408 137.5769408  47.8720000
  98.2419408 137.8409408  46.4450000  98.0199408 121.0509408  44.0630000
  98.1869408 121.8039408  43.4960000  98.5849408 121.1939408  44.8240000
 102.3299408 143.4389408  34.0320000 101.5709408 142.9229408  33.7610000
 103.0749408 143.0059408  33.6160000  93.8559408 148.2669408  36.1100000
  93.5329408 149.1219408  35.8250000  94.7399408 148.4389408  36.4320000
  92.1229408 142.1309408  47.8600000  92.8419408 141.8089408  47.3180000
  92.3069408 143.0629408  47.9750000 108.9909408 128.3469408  35.9690000
 109.9089408 128.3779408  36.2400000 108.8449408 127.4349408  35.7200000
  95.8029408 136.0779408  34.3120000  96.5949408 135.6419408  33.9980000
  95.6179408 135.6609408  35.1540000 105.6349408 131.6509408  33.7230000
 106.4549408 131.1739408  33.8460000 105.4639408 132.0589408  34.5730000
 103.6209408 135.0579408  41.2560000 102.8359408 135.3699408  41.7060000
 103.5009408 135.3309408  40.3470000  96.7349408 130.4089408  46.9120000
  97.6709408 130.2119408  46.8740000  96.3309408 129.5979408  47.2210000
  99.1019408 139.7299408  52.1000000  99.8669408 139.3959408  51.6300000
  99.3469408 140.6199408  52.3550000  98.8879408 140.4159408  31.5990000
  98.2829408 139.7779408  31.9770000  98.7719408 141.2019408  32.1330000
 103.4439408 120.5639408  35.1250000 104.2609408 120.5429408  35.6220000
 103.7179408 120.5099408  34.2090000  98.1309408 137.3219408  39.6840000
  98.1119408 138.2399408  39.4110000  97.9969408 137.3509408  40.6310000
 101.8609408 128.8709408  30.8180000 101.4729408 129.7019408  30.5460000
 102.8049408 129.0259408  30.7920000 104.0549408 140.7059408  49.8650000
 103.1819408 140.5199408  50.2090000 104.1139408 140.1809408  49.0660000
  98.7819408 134.8269408  40.5120000  97.8989408 134.6719408  40.8490000
  98.7299408 135.6859408  40.0920000 115.7759408 135.5769408  45.5950000
 116.5949408 135.4519408  45.1160000 115.8309408 134.9639408  46.3280000
 104.7319408 125.0299408  36.7360000 105.2879408 124.2539408  36.6670000
 105.2679408 125.6689408  37.2060000 104.7409408 138.3739408  58.8420000
 105.0239408 139.2489408  58.5730000 105.2609408 138.1829408  59.6220000
 104.8019408 135.4929408  46.8610000 104.9129408 136.3009408  46.3600000
 105.6729408 135.3059408  47.2110000  97.7279408 133.2519408  56.7680000
  97.4999408 132.7349408  57.5410000  98.4259408 133.8349408  57.0650000
 108.8059408 138.6449408  59.5420000 109.1739408 137.7629408  59.4910000
 109.4979408 139.2139408  59.2050000 117.4529408 132.4809408  42.6510000
 116.9679408 131.6609408  42.7380000 118.3159408 132.2169408  42.3320000
 109.8039408 130.9529408  38.8190000 110.7069408 131.2619408  38.7410000
 109.2889408 131.5889408  38.3220000 103.6759408 132.0399408  38.3110000
 102.9579408 132.4469408  38.7970000 103.3909408 131.1369408  38.1740000
  94.4319408 119.9699408  39.1520000  94.9539408 120.3289408  39.8690000
  93.7079408 120.5879408  39.0490000  93.1979408 135.2869408  37.9950000
  92.5999408 135.4139408  37.2590000  92.7259408 134.7069408  38.5910000
 103.4919408 130.2479408  45.4210000 104.1179408 130.9619408  45.5410000
 104.0109408 129.5349408  45.0460000 118.8019408 126.7519408  45.1170000
 118.5949408 126.3399408  44.2790000 117.9779408 127.1509408  45.3980000
  96.3509408 132.5299408  50.8020000  95.7639408 132.6359408  50.0530000
  96.8079408 133.3679408  50.8690000  92.1939408 122.4329408  45.0200000
  91.9859408 122.0149408  44.1840000  92.7589408 123.1699408  44.7850000
 110.3539408 121.1919408  44.3940000 111.2449408 121.0649408  44.0680000
 110.3279408 122.1089408  44.6690000 102.9529408 138.1909408  34.7110000
 102.8259408 138.4779408  35.6150000 103.8859408 138.3269408  34.5450000
 101.2079408 133.2309408  39.6310000 101.4929408 133.1859408  40.5430000
 100.4689408 133.8389408  39.6400000  95.2889408 136.5969408  31.2440000
  96.1979408 136.4009408  31.4730000  95.0949408 136.0109408  30.5130000
  95.9609408 121.2959408  40.8390000  96.7089408 121.8909408  40.8830000
  95.2019408 121.8499408  41.0230000 104.0369408 129.3019408  40.0320000
 103.0859408 129.2279408  39.9500000 104.3769408 128.5189408  39.5980000
 103.8409408 135.9929408  49.9150000 103.3829408 135.6059408  49.1690000
 104.1529408 136.8389408  49.5910000 107.9259408 133.8949408  44.1400000
 106.9729408 133.9149408  44.2200000 108.2449408 134.1439408  45.0080000
 107.9639408 124.7779408  30.3340000 107.0519408 125.0459408  30.4500000
 108.1979408 124.3589408  31.1630000  96.0819408 131.7559408  33.1260000
  95.2619408 132.2489408  33.0890000  96.7199408 132.3779408  33.4750000
 110.7849408 131.9599408  47.6010000 111.3309408 131.2469408  47.2700000
 110.9109408 132.6709408  46.9720000 106.0959408 130.7469408  39.5820000
 105.3069408 130.3579408  39.9590000 106.3329408 130.1619408  38.8630000
 101.8799408 131.9409408  33.1400000 101.5959408 131.9629408  34.0530000
 102.2839408 131.0799408  33.0340000 100.6029408 138.1769408  42.3180000
  99.6709408 138.0139408  42.4610000 100.6839408 139.1309408  42.3230000
 106.8019408 140.5669408  45.9690000 107.5409408 139.9729408  45.8380000
 106.7199408 141.0359408  45.1380000  96.3819408 123.8779408  36.2780000
  96.8239408 124.1609408  37.0780000  96.7769408 124.4079408  35.5850000
 107.8219408 130.6709408  54.7140000 107.0509408 130.2079408  54.3860000
 108.5589408 130.2549408  54.2680000 110.9929408 136.8169408  31.4860000
 111.3499408 137.6909408  31.3270000 110.4049408 136.9299408  32.2320000
 117.1529408 133.0869408  46.5300000 117.5009408 132.5009408  47.2020000
 116.4709408 132.5749408  46.0950000 118.4819408 130.9349408  39.6410000
 118.8959408 131.1749408  40.4700000 118.9019408 131.4979408  38.9910000
 104.8989408 146.5689408  38.8670000 104.8359408 146.8249408  39.7880000
 104.8469408 145.6129408  38.8800000  96.4319408 129.2409408  39.6680000
  95.6539408 129.7959408  39.6110000  96.1929408 128.4429408  39.1960000
 107.9739408 130.1959408  34.3400000 108.5639408 130.9399408  34.4650000
 108.2259408 129.5729408  35.0210000 104.5639408 131.3319408  42.5050000
 105.3129408 131.9219408  42.4160000 104.8419408 130.5249408  42.0710000
  95.8949408 139.3489408  40.4970000  95.2319408 139.5939408  41.1420000
  95.4229408 138.8129408  39.8600000 100.5329408 124.8369408  41.0850000
 100.4469408 125.5079408  40.4070000 101.3799408 125.0149408  41.4930000
  98.3729408 143.4639408  43.1860000  99.1639408 143.9339408  42.9220000
  97.6539408 143.9979408  42.8490000  98.0019408 133.8009408  34.2870000
  98.6839408 134.4149408  34.0160000  97.9259408 133.9279408  35.2330000
  98.5919408 140.0079408  41.6570000  97.6919408 139.6829408  41.6220000
  98.5009408 140.9549408  41.7650000  98.5059408 149.5499408  34.7200000
  99.2599408 149.8159408  34.1930000  98.6619408 149.9459408  35.5770000
  94.0379408 147.2559408  39.9530000  94.9729408 147.0479408  39.9550000
  93.9999408 148.1869408  39.7350000 107.8569408 125.7969408  36.3200000
 108.7739408 125.6119408  36.1180000 107.3679408 125.4069408  35.5960000
 114.8209408 127.4299408  38.6100000 114.9309408 126.7309408  37.9650000
 115.4989408 128.0679408  38.3900000  99.6499408 131.8419408  37.8760000
 100.4039408 132.2779408  38.2730000  99.2779408 131.3139408  38.5820000
 107.8409408 131.3329408  51.0730000 107.5779408 130.4969408  51.4570000
 107.0239408 131.8229408  50.9800000 106.4069408 123.6289408  49.0480000
 107.1099408 124.2789408  49.0450000 106.1969408 123.5069408  49.9740000
 101.6449408 128.1269408  53.6070000 101.9199408 127.4939408  54.2710000
 101.9309408 128.9729408  53.9510000 108.3389408 128.6359408  47.0160000
 108.1949408 129.4509408  47.4970000 109.2549408 128.4159408  47.1850000
  97.8239408 129.7049408  31.9020000  98.6989408 129.3949408  32.1340000
  97.3699408 129.7939408  32.7400000  97.4669408 129.5539408  56.4890000
  97.0789408 130.1509408  57.1290000  97.8689408 130.1279408  55.8380000
 103.4879408 128.3599408  47.7820000 102.5719408 128.4729408  48.0380000
 103.7179408 129.1799408  47.3450000 117.1329408 133.4899408  36.5760000
 116.2129408 133.7239408  36.4540000 117.5309408 134.2739408  36.9540000
  95.3919408 129.8369408  51.5440000  94.4879408 130.0839408  51.7380000
  95.8819408 130.6569408  51.5990000 105.6989408 133.6459408  51.5090000
 104.9289408 134.2119408  51.4530000 105.7449408 133.3939408  52.4310000
  95.3759408 125.8509408  34.5400000  95.9379408 126.5929408  34.3170000
  95.1269408 126.0039408  35.4520000 111.4999408 140.8909408  51.6630000
 111.5299408 141.8449408  51.5890000 111.2169408 140.5929408  50.7990000
 106.1989408 132.7839408  54.3270000 106.9519408 132.3809408  54.7590000
 105.5079408 132.1229408  54.3830000 110.3079408 132.6819408  51.5200000
 109.5659408 132.7069408  52.1230000 110.0339408 133.2229408  50.7790000
 113.5869408 131.2759408  33.3410000 112.6949408 131.6219408  33.3230000
 114.1119408 131.9439408  32.9000000  97.8799408 146.0279408  53.7110000
  98.5289408 146.2299408  53.0370000  97.0729408 145.8609408  53.2240000
 108.4169408 134.7709408  50.7260000 108.8399408 135.1919408  51.4750000
 107.5249408 134.5919408  51.0240000 104.9759408 135.1649408  53.9550000
 105.6309408 135.7189408  53.5300000 105.4869408 134.4979408  54.4130000
 110.1269408 137.4139408  47.2570000 110.8569408 138.0169408  47.1180000
 110.2649408 137.0689408  48.1390000 107.7229408 129.0149408  44.5310000
 108.2079408 129.8399408  44.5330000 107.7629408 128.7109408  45.4380000
 107.0589408 124.2909408  33.6940000 107.3229408 123.4279408  34.0130000
 106.3329408 124.1129408  33.0950000 102.1429408 133.0499408  53.4810000
 102.7959408 133.1569408  52.7890000 101.8279408 133.9369408  53.6530000
  99.2999408 124.7489408  46.6790000  98.4779408 124.7659408  46.1890000
  99.0309408 124.7099408  47.5970000 100.2849408 129.8869408  42.5980000
 100.8409408 129.1149408  42.4900000 100.1829408 129.9779408  43.5460000
 101.5199408 130.6549408  54.6330000 101.7749408 131.4879408  54.2350000
 100.7539408 130.3749408  54.1320000 118.8309408 127.2719408  32.2880000
 118.8699408 126.9779408  33.1980000 119.5399408 126.7969408  31.8530000
 102.8319408 126.0959408  55.8560000 102.2219408 126.7999408  56.0740000
 102.2899408 125.4319408  55.4300000 112.0739408 129.3869408  59.4840000
 112.9599408 129.0269408  59.4310000 111.4999408 128.6319408  59.3590000
 107.8369408 125.8009408  48.3520000 108.7399408 125.6199408  48.0890000
 107.7859408 126.7559408  48.3950000 105.8959408 139.4069408  54.8660000
 105.5879408 138.8379408  55.5710000 106.8499408 139.3899408  54.9430000
 102.3099408 137.8379408  48.4750000 101.5999408 137.7869408  47.8350000
 102.9599408 138.4099408  48.0670000 111.5769408 130.0929408  43.5580000
 110.8019408 130.5149408  43.9290000 111.6999408 130.5189408  42.7100000
  93.0429408 132.8729408  55.6090000  93.5349408 132.7249408  54.8020000
  92.7319408 132.0039408  55.8640000 104.6799408 149.2389408  56.7010000
 105.3729408 149.7719408  56.3100000 104.3379408 149.7769408  57.4150000
  95.6739408 143.6199408  30.0820000  96.0949408 143.8689408  30.9050000
  96.3839408 143.2649408  29.5480000  93.0279408 138.2679408  31.4330000
  93.1569408 139.2159408  31.4620000  93.8729408 137.9189408  31.1520000
  95.6639408 128.1749408  48.2520000  96.2629408 127.8789408  48.9380000
  95.1889408 127.3859408  47.9920000  95.9109408 126.2639408  53.1760000
  95.8639408 125.3079408  53.1610000  95.2579408 126.5469408  52.5370000
  93.5549408 132.7819408  33.2750000  92.7219408 132.4139408  33.5720000
  93.4619408 133.7249408  33.4110000 102.0799408 122.2879408  55.6550000
 101.8949408 122.3419408  56.5920000 101.6749408 123.0719408  55.2840000
  93.4729408 129.6029408  57.1470000  93.7089408 128.7169408  56.8730000
  94.0979408 129.8149408  57.8400000 110.1159408 123.8369408  45.0270000
 110.6079408 124.5009408  44.5440000 109.2639408 123.8059408  44.5920000
  99.1499408 149.6889408  52.5040000  99.9349408 150.2339408  52.5540000
  99.1679408 149.3219408  51.6200000 100.2899408 136.9219408  56.2360000
 100.6129408 136.3839408  55.5120000 100.5349408 137.8159408  55.9980000
  95.6959408 126.5609408  57.9650000  96.2729408 126.7839408  57.2350000
  96.2299408 126.7069408  58.7460000  99.0229408 130.0999408  53.4030000
  98.3649408 130.6929408  53.7660000  98.5369408 129.3039408  53.1870000
  92.6359408 129.1879408  42.6550000  92.1249408 129.8089408  43.1730000
  91.9839408 128.6069408  42.2650000 100.1199408 121.7629408  33.4120000
  99.5699408 121.8339408  32.6310000 100.9739408 122.0939408  33.1340000
 105.5569408 145.5499408  56.2860000 104.8219408 144.9969408  56.0220000
 106.0899408 145.6339408  55.4950000  97.1549408 127.1399408  55.5410000
  96.6739408 127.0259408  54.7220000  97.2739408 128.0859408  55.6200000
 104.3109408 130.8199408  55.0000000 103.4729408 130.6859408  54.5580000
 104.6099408 129.9379408  55.2200000 114.7679408 126.0699408  47.1460000
 113.8289408 126.0299408  46.9640000 115.1819408 125.7409408  46.3480000
  95.1569408 131.4689408  45.1180000  94.3929408 131.0489408  45.5120000
  95.9069408 131.0229408  45.5130000 106.3049408 137.8459408  48.6500000
 106.4699408 138.5339408  48.0040000 106.6669408 137.0539408  48.2540000
 101.4229408 121.4139408  52.3640000 101.7979408 121.2949408  53.2370000
 102.1729408 121.6199408  51.8060000  94.3739408 122.0349408  52.5920000
  95.0449408 122.5869408  52.9950000  93.7539408 122.6539408  52.2080000
  97.8019408 136.5439408  37.0640000  97.6149408 135.6139408  37.1890000
  97.8329408 136.9049408  37.9500000  99.5459408 134.8449408  57.9910000
  99.9689408 135.6099408  57.6000000  99.0599408 135.1949408  58.7380000
 102.7309408 132.2139408  48.9580000 102.2289408 131.4239408  48.7610000
 102.6519408 132.7509408  48.1690000  93.0389408 147.9559408  58.5700000
  93.2659408 147.7619408  57.6600000  92.9049408 148.9029408  58.5870000
  98.8229408 139.2789408  58.8730000  99.0599408 138.7649408  59.6450000
  98.2279408 139.9509408  59.2050000 100.8119408 124.5099408  54.7060000
  99.9129408 124.5729408  55.0290000 100.7219408 124.4639408  53.7540000
  98.1589408 131.4079408  59.5170000  99.1069408 131.5379408  59.5250000
  97.9899408 130.8219408  60.2550000  97.4109408 128.2469408  52.5390000
  97.0039408 127.3889408  52.6570000  96.8979408 128.6629408  51.8460000
  95.9589408 122.4859408  59.6520000  95.4029408 122.4139408  60.4270000
  95.4749408 122.0279408  58.9650000 108.8269408 123.5309408  52.3500000
 108.8589408 122.6169408  52.6340000 109.3369408 123.5479408  51.5400000
 103.0339408 134.4019408  33.2410000 103.4299408 134.6769408  32.4150000
 102.6019408 133.5729408  33.0360000 104.6579408 121.6439408  54.3280000
 105.2989408 121.5509408  55.0330000 103.8909408 122.0299408  54.7510000
  99.2199408 130.8319408  50.8010000  98.2959408 130.9889408  50.6070000
  99.2279408 130.5439408  51.7140000  98.1889408 137.1529408  53.5900000
  99.0689408 137.0679408  53.9560000  97.9749408 138.0809408  53.6910000
  97.2109408 128.0059408  35.3860000  96.6419408 128.7579408  35.5510000
  97.9689408 128.1489408  35.9520000 120.1159408 128.1649408  41.4220000
 120.1929408 127.2509408  41.1470000 119.2939408 128.4639408  41.0340000
 111.0649408 129.6399408  32.0140000 111.5329408 129.0169408  32.5690000
 111.5449408 129.6309408  31.1850000  94.8949408 138.8529408  36.4910000
  95.2919408 139.6979408  36.7040000  95.4089408 138.5259408  35.7530000
  90.8779408 149.1329408  31.2170000  91.1779408 149.6449408  30.4660000
  91.0379408 148.2229408  30.9670000  96.9089408 124.5699408  45.4710000
  96.4269408 125.1219408  44.8560000  96.2819408 124.3849408  46.1700000
 105.2509408 128.2789408  55.3330000 104.5369408 127.6459408  55.4040000
 105.7219408 128.2039408  56.1630000 106.1519408 136.8349408  36.9130000
 105.4469408 136.5409408  36.3350000 105.7099408 137.0769408  37.7270000
  91.6169408 129.6609408  55.2060000  92.3259408 129.5369408  55.8370000
  92.0529408 129.9679408  54.4120000 105.4429408 120.1609408  43.2290000
 106.1079408 119.5109408  43.4580000 105.5879408 120.8799408  43.8430000
 114.0269408 139.3799408  51.4100000 114.2849408 138.4959408  51.6720000
 113.1719408 139.5119408  51.8210000 104.3959408 138.1949408  40.7400000
 104.3709408 138.1429408  41.6950000 104.2869408 137.2889408  40.4480000
  95.1149408 124.0059408  56.8730000  94.1869408 124.1409408  56.6820000
  95.3489408 124.7299408  57.4530000  94.5679408 132.7609408  53.3450000
  94.5269408 133.7069408  53.4870000  94.8839408 132.6679408  52.4460000
 111.5419408 122.2789408  54.3060000 111.1949408 122.1159408  53.4290000
 111.4429408 121.4439408  54.7630000 104.6329408 143.1429408  40.1660000
 104.8209408 143.6079408  39.3500000 104.7559408 142.2189408  39.9490000
 105.3159408 132.0549408  46.3340000 104.9349408 132.8129408  46.7780000
 106.1729408 131.9419408  46.7450000 112.2929408 137.8109408  53.8080000
 112.1829408 137.0259408  54.3450000 112.7159408 138.4419408  54.3890000
  99.7159408 137.2639408  30.6440000 100.4809408 136.8889408  30.2080000
 100.0779408 137.7609408  31.3780000  99.6429408 147.8269408  54.9720000
  99.4569408 147.5769408  54.0670000 100.3899408 148.4219408  54.9080000
  97.2109408 131.8149408  54.3940000  96.3699408 132.1359408  54.0660000
  97.5599408 132.5409408  54.9100000  90.1669408 128.8079408  50.3710000
  89.8829408 128.0049408  50.8070000  89.9809408 129.5029408  51.0020000
 101.3649408 129.9299408  48.7550000 100.7509408 129.2719408  48.4300000
 101.2129408 129.9549408  49.7000000 104.3869408 140.9349408  31.0510000
 103.5169408 141.2199408  30.7720000 104.8489408 140.7409408  30.2360000
 100.7769408 129.9669408  45.3550000 101.7099408 130.1599408  45.2610000
 100.7469408 129.1889408  45.9110000  93.5569408 127.1909408  56.0440000
  94.3569408 126.6719408  56.1280000  93.4109408 127.2549408  55.1000000
 109.8279408 135.7489408  43.0870000 110.5869408 135.7009408  43.6680000
 109.2939408 134.9909408  43.3260000  90.9909408 134.1799408  59.6390000
  91.5389408 134.9439408  59.4570000  90.9489408 134.1369408  60.5940000
 101.3459408 133.1939408  58.8840000 100.7059408 133.7409408  58.4290000
 101.9039408 132.8469408  58.1880000 118.4329408 121.3169408  47.7720000
 118.3759408 120.3929408  48.0160000 118.3789408 121.7879408  48.6040000
 106.9629408 136.6139408  52.6300000 106.8069408 137.5369408  52.8310000
 107.8629408 136.5879408  52.3060000 116.9299408 131.9079408  31.8610000
 116.9209408 132.4829408  32.6270000 117.6339408 131.2839408  32.0360000
 105.8339408 123.3109408  31.4930000 106.3929408 122.5349408  31.4550000
 105.4889408 123.4019408  30.6050000  90.8749408 123.4179408  53.9600000
  90.5559408 122.5409408  53.7490000  91.6379408 123.5389408  53.3940000
 103.8929408 139.7199408  47.2500000 103.8199408 140.5249408  46.7370000
 104.7049408 139.3139408  46.9450000 100.5189408 127.1779408  45.9270000
 100.5439408 126.3239408  46.3590000 100.1409408 126.9999408  45.0660000
 105.9109408 147.6449408  50.9300000 105.4609408 146.9469408  50.4540000
 105.2979408 147.8989408  51.6190000 105.5579408 124.1889408  56.1150000
 104.8629408 124.8469408  56.1260000 105.7909408 124.1009408  55.1910000
  99.3779408 128.0839408  58.2570000  98.8019408 128.1769408  57.4980000
 100.1869408 128.5259408  58.0000000  97.9469408 127.0969408  49.7360000
  97.9239408 126.1409408  49.7090000  98.7869408 127.3059408  50.1460000
 106.8989408 149.9439408  35.6780000 106.7499408 149.2089408  36.2740000
 106.6159408 149.6199408  34.8230000  99.8299408 147.2289408  35.4010000
  98.9329408 147.4469408  35.1470000 100.3679408 147.5429408  34.6740000
 108.4289408 149.3959408  58.3290000 107.9429408 148.5779408  58.2260000
 108.7299408 149.3839408  59.2380000  91.1219408 126.0539408  39.6410000
  90.6489408 126.3209408  38.8530000  91.9209408 126.5809408  39.6320000
 101.1519408 142.9069408  50.7830000 101.1849408 141.9589408  50.9060000
 100.5209408 143.0349408  50.0740000 101.0869408 145.7069408  37.3250000
 100.8939408 146.1889408  38.1280000 100.7599408 146.2699408  36.6230000
  92.6749408 138.7829408  40.9760000  93.1839408 139.3299408  41.5740000
  93.0549408 138.9529408  40.1140000 103.9669408 135.5319408  35.7910000
 104.1179408 134.5939408  35.6770000 103.3829408 135.7699408  35.0710000
  92.1679408 124.6769408  42.0900000  91.6919408 125.0179408  41.3330000
  91.8439408 125.1909408  42.8290000  99.7219408 148.0699408  38.6160000
  99.4219408 148.0619408  37.7080000  99.1469408 148.6979408  39.0530000
 101.7279408 140.3879408  51.2710000 101.6209408 139.5149408  50.8940000
 102.3419408 140.2629408  51.9960000 118.0529408 145.8899408  42.2050000
 118.2489408 146.7309408  42.6180000 117.0989408 145.8779408  42.1250000
 103.8599408 126.7389408  32.4700000 103.0679408 127.2019408  32.1940000
 103.5509408 126.0939408  33.1060000  94.9999408 149.5199408  48.2440000
  95.1339408 149.6689408  49.1800000  94.6149408 150.3359408  47.9240000
 100.5059408 139.8669408  36.1100000  99.8559408 139.5139408  35.5030000
  99.9949408 140.3779408  36.7380000 103.0909408 125.1259408  34.6640000
 103.6829408 125.1169408  35.4160000 102.3979408 124.5079408  34.8970000
  93.3269408 144.6049408  49.3680000  94.2059408 144.2289408  49.3230000
  93.4169408 145.4729408  48.9750000  90.0379408 141.4779408  34.6990000
  90.9309408 141.1549408  34.5830000  89.4899408 140.8369408  34.2450000
 105.7609408 145.8819408  34.7460000 105.6409408 145.0999408  34.2060000
 104.9199408 145.9989408  35.1890000 104.2179408 140.3289408  43.1910000
 104.4609408 141.2159408  42.9250000 105.0449408 139.9189408  43.4450000
 102.8429408 144.9729408  51.9030000 102.4879408 144.2539408  51.3800000
 103.3269408 145.5089408  51.2750000  94.6779408 142.4899408  46.5850000
  95.2769408 143.2359408  46.6160000  95.2109408 141.7439408  46.8610000
  95.7979408 141.3969408  36.7650000  96.4539408 141.7799408  37.3470000
  94.9819408 141.4349408  37.2640000 120.0089408 141.9419408  59.8560000
 119.3139408 142.0199408  60.5100000 119.9439408 141.0409408  59.5420000
 107.4849408 147.6719408  37.7400000 106.6389408 147.2889408  37.9700000
 107.8719408 147.0489408  37.1250000  92.3099408 138.7869408  35.5240000
  91.6629408 138.6259408  36.2120000  93.1549408 138.6519408  35.9530000
 104.3059408 148.7819408  37.3720000 104.7559408 148.1469408  37.9280000
 103.9669408 148.2639408  36.6420000 114.3189408 144.7159408  44.1060000
 114.8969408 143.9829408  43.8980000 114.5489408 145.3919408  43.4680000
  96.4959408 138.9039408  32.3800000  95.9039408 139.5189408  31.9470000
  95.9969408 138.0889408  32.4350000  95.8519408 147.3879408  59.9390000
  95.2559408 147.5509408  59.2070000  95.3619408 146.8089408  60.5230000
 106.4369408 139.0669408  51.2430000 106.5039408 138.3559408  50.6060000
 105.6939408 139.5899408  50.9420000  97.2649408 143.0889408  33.3920000
  97.5729408 143.8519408  32.9040000  97.6459408 143.1919408  34.2640000
 100.3759408 143.4779408  47.1180000  99.6279408 143.2069408  47.6500000
 100.5139408 142.7509408  46.5100000 105.4449408 145.1009408  44.0140000
 106.2459408 145.2109408  43.5020000 105.0809408 144.2679408  43.7140000
  99.1669408 125.4379408  35.7480000  98.8509408 125.6709408  34.8750000
  99.4189408 124.5179408  35.6750000  94.2729408 140.1469408  42.5690000
  93.8439408 140.9559408  42.8460000  95.0339408 140.0699408  43.1450000
  93.2469408 135.4839408  33.2100000  93.6359408 136.1419408  32.6340000
  93.7999408 135.4919408  33.9910000  94.1789408 137.7809408  38.9290000
  94.2309408 138.1619408  38.0530000  93.5919408 137.0319408  38.8310000
 101.1639408 149.3629408  44.0990000 101.9599408 149.0219408  44.5070000
 100.8289408 150.0059408  44.7250000 101.2709408 149.4239408  30.7540000
 101.1439408 149.1009408  29.8620000 100.7259408 150.2099408  30.8040000
 100.1639408 134.3359408  47.9330000  99.7059408 133.4989408  47.8530000
 100.9369408 134.2409408  47.3770000  96.7049408 144.8669408  37.0240000
  97.3139408 144.3839408  36.4660000  96.0519408 145.2189408  36.4190000
  90.7809408 137.7779408  33.0700000  91.3749408 137.8329408  33.8190000
  91.3059408 138.0689408  32.3250000  96.9129408 146.0559408  43.0170000
  96.7609408 146.9919408  43.1450000  97.8609408 145.9539408  43.1010000
  99.9689408 145.5049408  41.5150000 100.0609408 146.2039408  42.1630000
  99.5309408 145.9229408  40.7730000 102.8559408 122.0519408  39.6080000
 103.6339408 121.5559408  39.8640000 102.6389408 122.5739408  40.3800000
 100.9059408 142.2719408  31.9450000 100.8709408 141.3879408  31.5790000
 100.4339408 142.8129408  31.3120000  90.6149408 134.7429408  32.4330000
  89.9859408 135.4539408  32.5520000  91.4659408 135.1429408  32.6100000
 105.8529408 143.8829408  37.9390000 105.9139408 143.7729408  36.9900000
 106.7569408 144.0099408  38.2250000  97.6779408 135.6369408  48.2270000
  97.3809408 135.6059408  49.1360000  98.4549408 135.0779408  48.2080000
  94.3649408 142.5619408  40.9050000  93.8259408 143.0119408  41.5560000
  95.0559408 143.1889408  40.6910000 101.6299408 143.2589408  41.2250000
 101.9139408 143.2529408  40.3110000 100.9499408 143.9319408  41.2610000
  93.3079408 142.3489408  44.1740000  93.6449408 143.1049408  43.6930000
  93.8179408 142.3319408  44.9840000 110.0859408 123.0319408  31.4180000
 110.4329408 122.3479408  30.8450000 109.2249408 122.7079408  31.6830000
 118.1769408 122.4219408  50.1510000 117.3749408 122.2089408  50.6290000
 118.4289408 123.2859408  50.4760000 109.2209408 148.9019408  39.3070000
 108.6819408 149.2899408  39.9960000 108.5979408 148.6619408  38.6210000
  90.9919408 119.9949408  55.7370000  91.7769408 120.0659408  55.1940000
  91.2419408 120.3889408  56.5730000  90.7819408 136.6869408  45.9170000
  90.1779408 136.2529408  46.5200000  90.3069408 137.4619408  45.6180000
  96.7389408 144.1779408  39.9850000  96.8389408 145.0859408  40.2700000
  96.8689408 144.2079408  39.0370000 100.4329408 121.4439408  45.7220000
 100.5989408 121.4719408  46.6650000 100.7079408 122.3039408  45.4050000
 101.3089408 139.2199408  55.3400000 102.0399408 139.3309408  54.7320000
 101.4799408 139.8519408  56.0380000  93.3309408 139.3729408  48.2010000
  92.4419408 139.5659408  48.5000000  93.8949408 139.6769408  48.9110000
 116.3379408 128.5209408  44.7070000 115.9319408 129.3879408  44.7270000
 115.5999408 127.9109408  44.7000000  93.1059408 141.9459408  38.1800000
  93.4189408 142.7029408  38.6760000  92.1519408 142.0229408  38.2010000
 105.4369408 143.2539408  50.0090000 106.0059408 143.1119408  49.2530000
 105.0009408 142.4129408  50.1430000  97.0619408 141.4499408  39.2770000
  97.2629408 142.2119408  39.8210000  96.5489408 140.8769408  39.8470000
 102.4839408 146.0199408  59.2340000 102.1589408 145.9759408  60.1330000
 101.7009408 146.1619408  58.7020000 102.0659408 148.8869408  39.7040000
 101.2279408 148.5389408  39.3980000 102.5209408 149.1529408  38.9050000
 101.2699408 146.0949408  46.5260000 101.8939408 146.0249408  45.8040000
 101.2699408 145.2259408  46.9290000 100.8659408 138.4719408  32.7640000
 100.6719408 139.4039408  32.8690000 101.5619408 138.2989408  33.3990000
 103.6439408 120.4429408  31.8470000 102.8629408 120.2199408  31.3410000
 103.6489408 121.3999408  31.8730000  93.1739408 120.5829408  34.5740000
  94.1289408 120.6499408  34.5680000  92.8779408 121.4079408  34.9580000
  99.4209408 141.4549408  37.9740000  98.8169408 141.4819408  38.7160000
 100.2109408 141.8929408  38.2920000 118.8549408 143.9129408  40.4620000
 118.1329408 143.2899408  40.3720000 118.5459408 144.5469408  41.1090000
  99.8059408 135.8759408  51.7940000  98.8959408 136.1509408  51.9020000
  99.7489408 134.9669408  51.5000000  97.9939408 141.3219408  44.6600000
  98.8919408 141.3319408  44.9910000  97.9779408 142.0019408  43.9870000
 115.4639408 145.1709408  38.5830000 114.5769408 145.4189408  38.3240000
 115.9009408 144.9499408  37.7600000 114.4759408 140.8279408  49.0240000
 115.3199408 141.0919408  48.6570000 114.7019408 140.2359408  49.7420000
  98.2409408 139.7249408  55.2630000  98.0479408 139.1849408  56.0300000
  99.1959408 139.7239408  55.2030000 102.9509408 121.3049408  42.5350000
 103.5739408 120.6049408  42.7320000 102.1069408 120.9639408  42.8300000
 119.8429408 146.8959408  38.9490000 119.2369408 146.1979408  38.6960000
 120.4319408 146.4839408  39.5810000 103.2739408 146.0209408  35.5640000
 103.0779408 145.8549408  36.4860000 102.5129408 145.6839408  35.0920000
 103.9679408 143.1959408  42.7510000 103.0609408 143.1179408  42.4530000
 104.4749408 143.3119408  41.9480000  97.9659408 143.2009408  54.6000000
  98.6309408 142.7009408  54.1270000  97.9549408 144.0549408  54.1660000
 118.8189408 148.9629408  49.5480000 119.3499408 148.7979408  50.3270000
 117.9169408 148.8389408  49.8420000  97.1999408 122.1849408  49.7970000
  97.7519408 121.4189408  49.6400000  96.4489408 121.8439408  50.2840000
 106.6659408 132.2829408  31.1970000 106.1439408 133.0379408  30.9240000
 106.2319408 131.9649408  31.9890000 101.4439408 135.8639408  53.9440000
 102.0879408 136.3889408  53.4680000 100.7859408 135.6379408  53.2870000
 104.5009408 132.8519408  35.8720000 104.3729408 132.6739408  36.8040000
 103.6179408 132.8409408  35.5020000 100.8959408 139.7499408  39.9370000
 100.1039408 139.8069408  40.4710000 101.6099408 139.9329408  40.5480000
 109.0259408 134.6979408  35.6060000 109.1789408 135.5409408  36.0320000
 108.8219408 134.0999408  36.3250000  96.7689408 148.4729408  44.2330000
  97.3599408 149.2059408  44.4070000  95.9639408 148.6979408  44.6990000
  99.7699408 142.6009408  56.6800000  99.2829408 142.6389408  55.8560000
  99.7329408 143.4939408  57.0220000 117.3529408 120.3099408  42.8330000
 117.5099408 119.6729408  43.5300000 117.9369408 121.0399408  43.0390000
 102.1129408 138.3489408  37.7370000 101.7449408 138.5769408  38.5910000
 101.5649408 138.8179408  37.1070000 114.6629408 139.5749408  42.4850000
 114.9049408 138.8659408  43.0800000 114.1909408 139.1409408  41.7740000
  91.4539408 149.7109408  45.8930000  91.4329408 150.6619408  46.0040000
  92.2849408 149.5399408  45.4500000  96.8329408 140.5419408  47.8900000
  97.4509408 139.8449408  47.6710000  96.2749408 140.1639408  48.5700000
 115.2199408 134.8659408  31.3530000 115.3179408 134.0859408  30.8060000
 114.4369408 135.3009408  31.0120000 108.8679408 147.6099408  33.3490000
 109.7269408 147.3279408  33.6620000 108.2529408 147.2769408  34.0020000
  98.3579408 124.1779408  31.8600000  98.4489408 124.8209408  32.5630000
  97.5369408 123.7239408  32.0540000 101.2019408 148.7629408  33.4690000
 101.2119408 149.5939408  33.9450000 101.6049408 148.9659408  32.6240000
  96.1329408 143.5059408  50.1000000  96.3269408 143.2889408  49.1880000
  96.9599408 143.8419408  50.4480000 100.2109408 148.4339408  41.9620000
 101.0079408 148.2959408  41.4500000 100.5229408 148.6039408  42.8510000
 107.3879408 142.3639408  57.4260000 107.6389408 142.8729408  58.1970000
 108.1209408 142.4709408  56.8190000  91.6809408 148.4499408  37.5820000
  92.3499408 147.9409408  37.1260000  90.8959408 147.9039408  37.5440000
 115.9239408 142.7609408  43.2040000 115.7279408 142.7439408  42.2670000
 116.0819408 141.8459408  43.4340000 109.3099408 146.6769408  44.0320000
 109.6109408 146.8749408  44.9190000 109.3619408 145.7229408  43.9680000
  93.3539408 144.7089408  39.0660000  93.7559408 145.5449408  39.3010000
  92.5179408 144.9489408  38.6650000  91.4129408 146.7549408  30.3960000
  92.1889408 147.0679408  29.9310000  91.2349408 145.8959408  30.0140000
 119.6089408 147.8679408  45.3230000 120.1049408 147.1339408  44.9590000
 120.2649408 148.5469408  45.4810000 112.3659408 134.6299408  38.6880000
 111.7399408 134.6659408  39.4110000 113.1379408 135.0919408  39.0160000
  91.5119408 139.0599408  43.6060000  90.8219408 139.4449408  43.0660000
  92.0049408 138.5029408  43.0030000  93.9449408 146.8669408  48.1460000
  93.7629408 146.8199408  47.2080000  94.4529408 147.6719408  48.2510000
 103.2799408 142.0519408  45.6120000 102.3279408 141.9589408  45.6370000
 103.5199408 141.8259408  44.7140000 102.9559408 141.3659408  36.3640000
 103.4859408 141.8059408  35.6990000 102.4029408 140.7609408  35.8690000
  93.4409408 126.1809408  31.9050000  94.0029408 126.8479408  31.5100000
  93.9759408 125.7989408  32.6010000 107.0119408 143.5979408  30.0990000
 107.4669408 144.3679408  30.4400000 106.1409408 143.9179408  29.8630000
  97.1949408 142.4749408  58.1130000  96.6079408 142.3649408  57.3650000
  98.0739408 142.3999408  57.7400000 108.2589408 132.5979408  37.4360000
 107.7069408 131.9699408  36.9700000 107.6589408 133.0499408  38.0290000
  90.1369408 123.5589408  35.8370000  89.9919408 122.6449408  35.5950000
  90.0729408 123.5669408  36.7920000 105.3399408 140.8529408  58.1340000
 104.7079408 141.5289408  57.8920000 106.1799408 141.1839408  57.8140000
 109.9039408 120.2909408  56.3150000 109.3069408 120.0529408  57.0240000
 110.2959408 121.1169408  56.5980000 116.3759408 143.1479408  52.1470000
 115.9069408 143.8409408  51.6830000 117.2419408 143.1299408  51.7400000
  98.6959408 124.9359408  56.2190000  98.5659408 124.8349408  57.1620000
  97.9669408 125.4869408  55.9330000  95.0549408 120.9999408  57.6170000
  95.2369408 121.8089408  57.1400000  94.9239408 120.3429408  56.9330000
 102.6159408 142.0489408  54.5270000 102.7129408 141.7699408  55.4380000
 103.1399408 141.4229408  54.0270000  94.7479408 146.4299408  32.0810000
  94.8309408 145.7089408  32.7050000  93.9279408 146.8609408  32.3190000
  99.2759408 146.4629408  44.7030000  99.7309408 146.2569408  45.5190000
  99.1089408 147.4049408  44.7520000 113.3719408 149.3539408  46.9710000
 113.3079408 148.3989408  46.9860000 112.9949408 149.6059408  46.1290000
 106.2559408 143.4489408  52.4580000 105.9049408 143.5529408  51.5740000
 105.4959408 143.5559408  53.0320000  96.9949408 135.9949408  50.7340000
  96.4209408 135.7369408  51.4560000  96.9939408 136.9519408  50.7580000
 106.4109408 147.9309408  46.0400000 106.7929408 148.4529408  46.7440000
 106.9819408 148.0879408  45.2870000 104.1419408 144.1589408  54.0840000
 103.6309408 143.3779408  54.2940000 103.5819408 144.6599408  53.4910000
 103.5379408 136.9969408  52.3460000 104.1009408 136.3869408  52.8230000
 103.4289408 136.5979408  51.4830000 103.4829408 139.4799408  53.5240000
 103.6019408 138.6709408  53.0260000 104.1959408 139.4769408  54.1620000
  95.5179408 140.8639408  30.6340000  94.6129408 140.9029408  30.3240000
  95.8689408 141.7369408  30.4600000  93.9199408 143.7329408  57.9040000
  93.7749408 142.7969408  57.7640000  94.6069408 143.7729408  58.5690000
 113.3409408 145.3679408  56.2690000 113.8739408 145.7849408  55.5910000
 112.6439408 145.9989408  56.4470000 111.0999408 147.1969408  56.2780000
 110.7519408 147.3389408  55.3980000 111.3499408 148.0699408  56.5810000
 104.6979408 145.7839408  49.6430000 104.8279408 145.7939408  48.6940000
 104.6369408 144.8559408  49.8670000 101.6579408 149.4879408  55.1230000
 101.5199408 150.2759408  55.6490000 102.5939408 149.3049408  55.2060000
  95.6269408 145.5319408  52.0670000  96.1349408 145.9269408  51.3580000
  95.2669408 144.7309408  51.6870000  98.4599408 122.5539408  54.9290000
  98.0919408 121.8119408  55.4080000  98.4689408 123.2689408  55.5650000
  93.5699408 140.9729408  57.9310000  92.6959408 140.8599408  57.5580000
  94.1639408 140.6609408  57.2500000 114.5209408 137.0009408  52.3890000
 115.1209408 136.3069408  52.6620000 113.6929408 136.7869408  52.8180000
 101.6979408 140.0789408  59.7730000 100.8099408 139.8989408  59.4640000
 102.0089408 139.2409408  60.1130000 100.6369408 141.0749408  45.7480000
 101.0509408 140.3259408  46.1760000 100.8889408 140.9959408  44.8280000
  97.8009408 137.6069408  56.9660000  97.9509408 138.0929408  57.7770000
  98.6709408 137.3129408  56.6970000 104.6939408 147.6009408  59.4540000
 103.7959408 147.3609408  59.6810000 104.6029408 148.1929408  58.7070000
 104.6019408 148.8039408  53.5100000 105.1489408 148.3629408  54.1610000
 104.6489408 149.7299408  53.7450000  98.0119408 145.6129408  59.1090000
  97.3469408 145.9979408  59.6800000  97.5689408 145.4959408  58.2690000
 107.2359408 145.8399408  54.2300000 107.9919408 145.7569408  53.6490000
 106.6439408 145.1399408  53.9550000 106.3829408 145.0279408  46.5230000
 105.9809408 144.9789408  45.6560000 106.6939408 145.9299408  46.5930000
  89.8979408 145.6919408  52.9550000  89.7849408 144.8959408  53.4740000
  90.8379408 145.7319408  52.7780000  98.7329408 145.2859408  32.7840000
  99.4529408 145.3559408  32.1580000  98.2929408 146.1349408  32.7390000
 116.7709408 123.6649408  52.7270000 116.7729408 122.8369408  53.2070000
 117.3549408 124.2339408  53.2270000  95.4859408 137.0279408  55.4590000
  95.3769408 136.1209408  55.7470000  96.3439408 137.2849408  55.7970000
  99.9189408 123.5539408  51.8240000  99.1149408 123.4609408  52.3350000
 100.5089408 122.8899408  52.1800000 101.3379408 148.9519408  57.8980000
 100.3879408 148.9459408  57.7800000 101.6909408 148.7969408  57.0220000
  98.4839408 132.6569408  42.7750000  98.7579408 133.2109408  42.0450000
  99.2489408 132.1129408  42.9640000  94.8689408 142.0059408  34.4930000
  95.4839408 142.3369408  33.8380000  95.3879408 141.9349408  35.2950000
  91.1839408 143.8679408  32.2820000  91.7039408 143.3719408  31.6500000
  91.6219408 143.7219408  33.1200000  91.2759408 140.9209408  52.3260000
  91.5259408 140.2529408  51.6880000  91.9619408 141.5849408  52.2600000
  97.4129408 146.2019408  50.0570000  97.4249408 146.6489408  49.2110000
  98.2419408 146.4469408  50.4690000 100.8449408 122.1909408  58.1290000
  99.9649408 121.9919408  57.8090000 100.7209408 122.4099408  59.0520000
 102.1609408 141.0939408  57.1720000 101.3539408 141.5889408  57.0280000
 102.4389408 141.3399408  58.0540000 111.6459408 145.8579408  49.2480000
 111.8839408 145.4889408  48.3980000 111.1379408 145.1669408  49.6750000
  91.9099408 146.0429408  56.4380000  91.0299408 146.3809408  56.2760000
  91.8099408 145.4669408  57.1960000 116.5009408 143.4099408  33.8900000
 117.2679408 143.2959408  33.3290000 116.1529408 144.2679408  33.6490000
 102.1069408 148.3369408  52.1520000 102.8629408 148.3479408  52.7390000
 101.9139408 149.2609408  51.9920000  96.9049408 149.6589408  54.4020000
  97.4049408 149.1249408  55.0190000  97.5369408 149.8999408  53.7250000
 105.8789408 122.1039408  51.6990000 105.5149408 121.9559408  52.5720000
 106.7829408 121.7959408  51.7610000  98.8949408 141.6709408  49.8570000
  98.2309408 141.5909408  49.1720000  98.9859408 140.7849408  50.2080000
 109.3409408 139.3989408  50.3370000 109.0289408 139.1119408  49.4790000
 108.5439408 139.5879408  50.8320000 104.5349408 123.3569408  58.7370000
 104.1719408 122.4879408  58.5610000 105.0539408 123.5609408  57.9590000
 107.1019408 135.7249408  55.9070000 107.7749408 136.4049408  55.8650000
 106.2939408 136.1989408  56.1020000 103.0649408 121.5539408  50.0000000
 103.9649408 121.6039408  50.3230000 102.9399408 120.6309408  49.7800000
  98.2529408 121.2669408  58.1430000  97.5959408 121.4079408  58.8250000
  98.1889408 120.3329408  57.9390000 100.1359408 142.0139408  53.1660000
 100.2959408 142.4989408  52.3560000 100.9959408 141.9489408  53.5810000
 108.4869408 128.0279408  31.6070000 109.1999408 128.3819408  32.1380000
 108.0509408 128.7999408  31.2450000 105.1319408 137.2609408  56.3960000
 105.2409408 137.6919408  57.2440000 104.5449408 136.5269408  56.5740000
  97.2789408 146.4109408  56.2950000  96.3539408 146.2849408  56.0820000
  97.7199408 146.4259408  55.4460000 104.4529408 140.9099408  33.7780000
 104.3679408 140.7669408  32.8350000 105.0229408 140.2019408  34.0770000
  97.1399408 147.5469408  47.6840000  96.8289408 147.2759408  46.8200000
  96.5409408 148.2459408  47.9460000 115.0939408 123.0129408  55.4040000
 114.7599408 122.6939408  54.5660000 115.6369408 122.2969408  55.7340000
 105.7979408 148.7229408  33.2530000 105.6619408 147.7969408  33.0530000
 105.1299408 149.1799408  32.7420000  99.0859408 121.1759408  31.1750000
  98.4019408 120.5059408  31.1510000  98.6729408 121.9539408  30.8020000
  98.0329408 149.1679408  40.5370000  98.6119408 148.8459408  41.2270000
  97.5109408 149.8489408  40.9610000 102.8329408 136.8609408  43.8650000
 102.4649408 135.9809408  43.9370000 102.1939408 137.3459408  43.3420000
  98.4229408 148.5869408  57.7970000  98.0969408 148.0029408  57.1120000
  98.0209408 148.2599408  58.6020000 103.1219408 135.2349408  56.3590000
 102.9999408 134.2859408  56.3360000 103.2029408 135.4879408  55.4390000
  95.5019408 120.1759408  50.8970000  95.1519408 120.8029408  51.5300000
  95.3639408 119.3209408  51.3060000 104.6709408 127.7959408  35.3550000
 105.3629408 127.6749408  34.7050000 104.3999408 126.9069408  35.5840000
 102.2429408 126.3459408  37.8770000 103.0639408 125.9189408  37.6340000
 101.5769408 125.9019408  37.3520000 100.7739408 126.2109408  59.9660000
 101.1209408 126.8889408  60.5450000 100.1539408 126.6719408  59.4000000
 114.9609408 135.1169408  36.4150000 114.0719408 135.3439408  36.1410000
 115.4919408 135.8699408  36.1570000 109.3769408 127.5459408  42.7920000
 109.5639408 127.9789408  41.9590000 108.9799408 128.2279408  43.3340000
 119.9389408 132.9329408  50.1570000 119.2409408 133.5489408  49.9330000
 119.5489408 132.0699408  50.0180000 113.4369408 128.0999408  44.6000000
 113.0629408 128.4679408  43.7990000 113.0709408 127.2169408  44.6520000
 117.4789408 123.9939408  40.6530000 117.3369408 124.2939408  39.7560000
 117.7139408 123.0699408  40.5640000 113.8419408 127.9109408  41.1330000
 113.2649408 128.4849408  40.6300000 114.5029408 127.6239408  40.5030000
 114.1399408 121.3499408  40.9420000 113.2239408 121.4689408  41.1920000
 114.1099408 120.7419408  40.2040000 112.8249408 141.8459408  59.9020000
 113.1099408 141.1609408  60.5080000 113.3979408 141.7459408  59.1420000
  90.0609408 126.7279408  47.5830000  90.7789408 127.3319408  47.7720000
  89.7179408 127.0209408  46.7390000 109.3879408 132.0239408  31.7080000
 108.4449408 132.1189408  31.5730000 109.5609408 131.0969408  31.5410000
 108.6229408 124.8899408  42.5080000 109.1929408 124.4829408  41.8550000
 108.9969408 125.7609408  42.6440000 118.2209408 143.3229408  44.8680000
 117.5639408 143.4529408  44.1850000 119.0359408 143.1649408  44.3900000
 117.7609408 122.7849408  33.9490000 118.2159408 122.0179408  33.6010000
 117.0409408 122.9349408  33.3370000 105.8699408 127.0169408  30.6600000
 105.2029408 126.8519408  31.3270000 106.4569408 127.6569408  31.0610000
 109.5339408 137.2399408  56.6460000 110.2919408 136.8729408  56.1910000
 109.5379408 136.8119408  57.5020000 115.9399408 125.4359408  44.7680000
 116.1589408 125.8389408  43.9280000 115.7629408 124.5199408  44.5560000
 115.4509408 126.9699408  35.4990000 114.8859408 126.2069408  35.3780000
 115.7639408 127.1789408  34.6180000  90.4629408 142.8909408  43.2580000
  90.2129408 141.9829408  43.0880000  91.3599408 142.8359408  43.5870000
 104.7979408 131.2589408  50.4950000 104.1209408 131.7319408  50.0110000
 105.3779408 131.9449408  50.8280000 108.4659408 143.8039408  39.1880000
 108.8379408 144.6159408  38.8460000 108.9149408 143.1109408  38.7040000
 106.7079408 127.0059408  33.8860000 107.1969408 127.5149408  33.2390000
 106.7849408 126.0999408  33.5860000  95.6159408 123.9159408  47.9620000
  96.1299408 123.4149408  48.5940000  95.1099408 123.2559408  47.4870000
 115.2969408 125.6169408  49.7390000 116.1719408 125.2819408  49.5430000
 114.9219408 125.8239408  48.8830000 100.5079408 127.1349408  50.9140000
 101.3479408 126.7929408  50.6060000 100.6289408 127.2549408  51.8560000
  95.4309408 128.9249408  43.3460000  94.5449408 128.8439408  43.6980000
  95.4069408 129.7229408  42.8170000 119.5329408 120.6999408  33.3760000
 120.1959408 120.7629408  32.6890000 119.1429408 119.8339408  33.2540000
 109.1209408 131.3209408  43.8360000 108.7309408 131.3989408  42.9650000
 108.7629408 132.0599408  44.3270000 113.4509408 136.6139408  47.9200000
 113.0099408 137.2459408  47.3520000 112.8429408 136.4799408  48.6470000
  91.2429408 145.3819408  41.0890000  91.8839408 144.7989408  40.6820000
  90.4409408 144.8619408  41.1370000  90.5589408 123.4369408  32.1060000
  90.9039408 123.9419408  31.3700000  89.6199408 123.3699408  31.9320000
 115.4529408 143.0009408  36.3470000 116.1639408 142.5919408  36.8410000
 115.8259408 143.1649408  35.4810000 109.8289408 132.1619408  34.8400000
 110.2879408 132.3219408  35.6640000 109.5549408 133.0299408  34.5450000
 108.0169408 127.0069408  57.2190000 107.3259408 126.5609408  57.7080000
 108.0999408 126.5049408  56.4080000 115.5609408 131.1319408  45.4750000
 115.1189408 130.5969408  46.1340000 114.8589408 131.6419408  45.0700000
  91.6959408 134.5629408  35.6540000  91.0739408 134.5129408  34.9270000
  91.7619408 133.6639408  35.9750000 116.7429408 123.6139408  47.8620000
 116.4659408 124.0829408  47.0750000 116.0469408 122.9769408  48.0200000
 111.6259408 139.4869408  31.2030000 112.4039408 139.0829408  31.5860000
 111.3859408 140.1789408  31.8190000 109.8959408 127.7829408  59.2340000
 109.4559408 127.5179408  58.4260000 109.2739408 127.5689408  59.9280000
 119.2179408 143.7659408  35.8380000 119.3659408 144.3189408  35.0710000
 119.4309408 142.8809408  35.5410000 111.2669408 120.7559408  38.5830000
 111.3999408 121.0999408  39.4660000 110.5919408 120.0849408  38.6870000
 114.1839408 124.4299408  59.2750000 113.9199408 125.0219408  58.5710000
 113.4349408 124.4179408  59.8720000 117.0209408 120.6149408  53.3560000
 116.1119408 120.3729408  53.1770000 117.4589408 119.7839408  53.5400000
 117.0549408 140.3509408  43.5330000 116.2059408 140.0659408  43.1960000
 117.4329408 139.5649408  43.9270000 113.3629408 125.0449408  41.8150000
 113.7649408 125.8809408  41.5770000 114.1039408 124.4649408  41.9930000
 114.9759408 121.0289408  50.1130000 114.6729408 121.3969408  49.2830000
 114.4759408 121.4979408  50.7810000 112.5319408 143.9129408  46.2690000
 113.3199408 143.8259408  46.8050000 112.8589408 144.0669408  45.3830000
 116.3219408 127.4929408  53.9420000 116.3019408 126.7529408  54.5480000
 117.1049408 127.9849408  54.1900000  90.1739408 131.8329408  41.6060000
  90.4409408 131.6049408  42.4960000  90.8999408 132.3529408  41.2630000
 115.7369408 139.1459408  38.1800000 114.8499408 139.1279408  38.5390000
 116.1869408 138.4239408  38.6170000 106.6539408 129.5689408  37.1000000
 106.2859408 129.1019408  36.3490000 107.5579408 129.2609408  37.1550000
 108.3429408 145.7469408  36.0430000 108.8659408 144.9999408  35.7510000
 107.5969408 145.7659408  35.4440000  94.7929408 145.8129408  35.2480000
  94.3529408 146.6369408  35.4600000  94.0799408 145.1949408  35.0880000
 113.2419408 143.1659408  40.4920000 112.9709408 143.7249408  39.7630000
 112.5509408 142.5069408  40.5570000 115.7379408 146.5139408  46.0000000
 115.5399408 145.6189408  45.7260000 114.8859408 146.8929408  46.2160000
  90.0309408 126.3349408  37.2890000  89.4529408 125.8939408  36.6650000
  90.7089408 126.7369408  36.7450000  95.4109408 121.6389408  44.1010000
  96.3529408 121.5459408  43.9540000  95.1199408 122.2449408  43.4200000
 110.9789408 131.3509408  58.1040000 111.4849408 130.7389408  58.6380000
 111.4719408 131.4199408  57.2860000 102.0409408 123.7889408  30.3090000
 101.4489408 124.5119408  30.1020000 102.7159408 123.8299408  29.6310000
 114.4599408 122.0869408  47.5660000 114.6979408 122.1839408  46.6440000
 113.9199408 121.2969408  47.5930000  98.5499408 124.3989408  49.4280000
  99.1569408 124.0959408  50.1040000  97.8149408 123.7869408  49.4750000
 117.6739408 127.2299408  58.4930000 118.1929408 128.0039408  58.2730000
 117.5139408 126.7999408  57.6530000 111.2339408 121.7299408  41.0500000
 111.0569408 121.7479408  41.9900000 111.0979408 122.6329408  40.7630000
 112.1169408 126.2239408  46.4610000 111.5759408 126.8179408  46.9810000
 111.6809408 126.1839408  45.6100000 107.0459408 129.7769408  60.0950000
 106.9329408 130.7139408  60.2500000 107.3599408 129.7189408  59.1920000
 117.9949408 121.5439408  39.2960000 117.6689408 120.7739408  39.7610000
 117.5859408 121.4939408  38.4320000  94.1849408 139.2609408  45.5620000
  93.2749408 139.4589408  45.3410000  94.2369408 139.3929408  46.5080000
 111.5719408 136.0879408  49.4610000 111.2589408 136.5549408  50.2350000
 112.0279408 135.3219408  49.8100000 114.5889408 132.8039408  48.0590000
 115.3309408 132.2919408  47.7360000 114.9889408 133.5189408  48.5550000
  92.6959408 124.0899408  51.8710000  92.3059408 123.5869408  51.1560000
  92.9999408 124.8979408  51.4560000 119.8669408 142.4849408  53.7190000
 120.5199408 142.0109408  53.2050000 119.1229408 142.5889408  53.1250000
 112.9719408 149.7709408  36.6800000 112.3179408 150.1079408  37.2920000
 113.6439408 149.3789408  37.2390000 120.0319408 129.3559408  37.3470000
 119.0959408 129.2539408  37.5190000 120.1719408 128.9109408  36.5120000
 102.1399408 127.4559408  42.2220000 103.0799408 127.4309408  42.0430000
 101.9669408 126.6499408  42.7080000 112.2569408 132.3619408  41.4830000
 111.7519408 133.1539408  41.2990000 112.2079408 131.8529408  40.6740000
 117.9939408 128.9349408  48.7130000 118.8849408 128.7869408  49.0320000
 117.4419408 128.4079408  49.2910000 115.9349408 141.0989408  58.9360000
 115.4299408 141.0179408  58.1280000 116.4369408 141.9069408  58.8260000
  92.6369408 128.9269408  38.6340000  93.0599408 129.1289408  39.4690000
  91.7709408 129.3279408  38.7010000  91.9669408 128.2519408  48.4270000
  92.8179408 128.6559408  48.5950000  91.4089408 128.5619408  49.1400000
 117.5039408 125.9579408  42.6760000 117.6349408 125.1329408  42.2080000
 117.4329408 126.6169408  41.9850000  96.0659408 123.5049408  33.3350000
  95.7129408 124.3689408  33.5490000  95.3759408 123.0859408  32.8200000
 110.1629408 123.2489408  37.1740000 110.7889408 122.6829408  37.6270000
 109.4289408 123.3299408  37.7820000 106.8479408 149.6619408  40.6200000
 106.3209408 149.0759408  41.1630000 106.2789408 149.8849408  39.8840000
  95.8869408 130.2809408  35.3640000  95.6359408 130.8369408  36.1020000
  95.8729408 130.8659408  34.6070000 112.0509408 147.8479408  51.3780000
 112.2919408 147.3129408  50.6220000 112.4079408 148.7149408  51.1820000
 116.0049408 148.4509408  50.5770000 115.3879408 147.8689408  50.1320000
 115.6789408 149.3319408  50.3920000 105.9519408 135.9449408  30.6750000
 105.0699408 135.6069408  30.8280000 106.3909408 135.2529408  30.1800000
 112.1649408 127.7679408  38.6350000 113.0789408 127.4839408  38.6030000
 112.1279408 128.5239408  38.0490000 114.3869408 130.8979408  37.2380000
 114.6949408 131.3449408  38.0260000 115.0989408 131.0059408  36.6070000
 110.4669408 147.5979408  46.5020000 110.0149408 148.4079408  46.7400000
 109.9129408 146.9009408  46.8520000 107.1799408 144.4859408  41.5940000
 107.1339408 144.0919408  40.7230000 107.8769408 145.1389408  41.5260000
 117.1109408 127.9229408  40.7590000 116.6699408 128.6599408  41.1820000
 117.2859408 128.2279408  39.8680000 114.4309408 128.2329408  30.1660000
 114.9999408 128.8329408  29.6840000 114.9499408 127.9689408  30.9260000
 117.6649408 137.8339408  50.4340000 117.0099408 137.9209408  51.1270000
 117.7929408 138.7259408  50.1110000 110.4459408 125.7249408  35.9510000
 110.6899408 124.9389408  36.4390000 111.2809408 126.0999408  35.6680000
  94.0989408 137.2339408  50.9040000  93.5579408 137.6299408  50.2210000
  94.7849408 137.8809408  51.0720000 113.0409408 145.6989408  37.7480000
 112.2169408 146.1149408  37.4950000 113.0589408 144.8799408  37.2530000
 105.0709408 123.1099408  41.9730000 105.9309408 122.7019408  41.8700000
 104.5769408 122.4959408  42.5170000  91.2549408 126.8109408  44.1630000
  90.3669408 126.7379408  44.5100000  91.5479408 127.6809408  44.4330000
  91.2039408 138.3319408  38.1590000  91.7869408 138.4599408  38.9080000
  90.4139408 137.9419408  38.5330000 100.8509408 138.0429408  50.5640000
 101.5169408 137.8769408  49.8970000 100.6929408 137.1879408  50.9640000
 115.3289408 133.5029408  41.5810000 115.0329408 134.2309408  42.1270000
 116.1189408 133.1829408  42.0170000 117.1119408 147.8559408  44.3000000
 116.6299408 147.3489408  44.9530000 118.0099408 147.8809408  44.6300000
 114.7879408 122.1149408  35.8990000 114.1839408 121.3719408  35.9120000
 115.6579408 121.7159408  35.9040000 109.4179408 135.1679408  46.0930000
 110.2329408 134.6729408  46.0060000 109.6999408 136.0539408  46.3210000
 117.7659408 133.5989408  33.8470000 117.7389408 133.8419408  34.7720000
 117.9009408 134.4269408  33.3850000  95.1689408 134.5189408  46.3780000
  95.8409408 134.4369408  47.0540000  94.4199408 134.9079408  46.8290000
 112.8469408 134.3839408  59.2860000 113.0729408 135.2939408  59.4810000
 112.3399408 134.4319408  58.4760000 114.5049408 123.7859408  38.3370000
 114.6659408 123.1259408  37.6630000 115.3689408 123.9629408  38.7110000
 117.8919408 135.9599408  31.8140000 117.0629408 135.4949408  31.6950000
 118.2699408 136.0039408  30.9360000 111.4209408 125.9589408  43.7260000
 110.7449408 126.4539408  43.2630000 112.0389408 125.6999408  43.0420000
  94.4059408 130.8699408  31.0480000  93.6999408 131.4429408  31.3470000
  95.1239408 131.0339408  31.6600000 107.9489408 137.1749408  41.2960000
 107.9059408 136.2389408  41.0990000 108.8179408 137.2979408  41.6800000
 115.4809408 131.9639408  39.4060000 115.1199408 132.5119408  40.1030000
 116.2799408 131.5939408  39.7810000 117.2379408 124.9699408  38.0610000
 117.3909408 125.8909408  38.2740000 117.5609408 124.8749408  37.1650000
 114.1389408 128.9709408  54.3760000 113.4629408 128.4299408  53.9690000
 114.9209408 128.4189408  54.3760000 106.7859408 138.4209408  31.6810000
 106.7219408 137.5299408  31.3370000 107.4129408 138.8559408  31.1040000
 112.8489408 133.5719408  49.9600000 113.5609408 133.2709408  49.3950000
 112.1069408 133.0129408  49.7290000 113.2589408 120.4689408  44.2250000
 113.7039408 119.7619408  43.7580000 113.9489408 121.1049408  44.4120000
  98.5139408 138.9249408  34.6940000  98.4449408 137.9949408  34.9100000
  97.8739408 139.0569408  33.9950000  90.9149408 132.1979408  33.5130000
  90.7669408 132.8599408  32.8380000  90.2449408 131.5339408  33.3490000
 106.2619408 125.6629408  41.8050000 107.1559408 125.3529408  41.9450000
 105.7269408 124.8699408  41.8260000 115.2609408 122.5219408  45.1500000
 116.1599408 122.1979408  45.2140000 115.1129408 122.6349408  44.2110000
 116.0369408 129.7699408  42.4210000 116.3529408 129.1019408  43.0300000
 115.0999408 129.8379408  42.6050000 113.0209408 128.4339408  33.5050000
 113.2149408 129.3699408  33.4500000 113.4379408 128.1499408  34.3190000
 108.3969408 121.7669408  34.5070000 108.1719408 121.0319408  35.0770000
 109.3529408 121.8069408  34.5340000 117.9889408 129.2129408  55.4190000
 118.5799408 129.2639408  56.1700000 117.4759408 130.0199408  55.4620000
 119.4079408 140.4649408  42.4830000 118.5159408 140.4729408  42.8300000
 119.2959408 140.4509408  41.5330000 109.9099408 128.3669408  40.0660000
 109.9099408 129.2509408  39.6990000 110.6139408 127.9149408  39.6030000
 112.6919408 131.3699408  56.1520000 112.7639408 130.5559408  55.6530000
 113.5839408 131.5479408  56.4510000 112.3429408 137.8229408  43.7280000
 112.4789408 138.5569408  44.3260000 111.4959408 137.9999408  43.3180000
 108.5539408 138.9259408  54.6820000 108.7939408 138.2999408  55.3660000
 109.3529408 139.4279408  54.5250000  90.9789408 131.7839408  36.4660000
  90.8059408 131.5689408  35.5490000  90.8379408 130.9619408  36.9360000
 108.5449408 126.2349408  38.9460000 108.6869408 126.3049408  38.0020000
 108.8589408 127.0669408  39.2990000 107.5829408 122.1169408  41.6990000
 107.5359408 121.9249408  42.6360000 107.4419408 121.2719408  41.2740000
 113.0879408 126.0449408  32.2860000 113.1179408 126.9629408  32.5550000
 112.5769408 126.0479408  31.4770000 109.4299408 149.0179408  30.8690000
 110.3869408 149.0099408  30.8630000 109.1899408 148.4979408  31.6360000
 113.0929408 124.5809408  56.6170000 113.7929408 124.1529408  56.1250000
 112.4559408 124.8409408  55.9520000 119.4029408 141.3029408  46.8030000
 119.1189408 142.1149408  46.3830000 120.2919408 141.4879408  47.1050000
 119.9999408 123.3119408  38.7350000 119.2879408 122.6869408  38.8720000
 119.6239408 124.1599408  38.9690000  97.9229408 120.9289408  37.0610000
  98.3859408 121.4039408  37.7510000  97.6119408 121.6119408  36.4670000
 116.0629408 126.2019408  32.8730000 116.7759408 126.4759408  32.2960000
 115.4759408 125.7009408  32.3070000 115.4119408 140.8149408  31.5320000
 115.4999408 140.9999408  30.5970000 116.2239408 140.3649408  31.7650000
 118.3659408 125.4669408  49.3010000 118.8039408 125.9929408  48.6320000
 118.0599408 124.6899408  48.8330000 103.7059408 120.8079408  58.7940000
 102.8089408 120.6749408  59.0990000 104.2449408 120.6919408  59.5770000
 110.9419408 124.3839408  47.7550000 110.5819408 123.9059408  47.0080000
 111.5239408 125.0359408  47.3640000 109.5519408 133.4549408  59.3200000
 109.6209408 132.9329408  60.1200000 109.9389408 132.9039408  58.6400000
 119.4049408 129.7769408  31.2160000 119.7829408 129.6169408  30.3520000
 118.8879408 128.9919408  31.4010000 113.8139408 136.7889408  59.7140000
 113.7769408 137.3819408  60.4640000 114.6549408 136.9789408  59.2980000
  92.6029408 136.3849408  57.6050000  92.3689408 136.0419408  56.7430000
  93.5349408 136.1849408  57.6980000 111.4199408 133.2069408  54.2540000
 111.6209408 132.3409408  54.6100000 111.2789408 133.0559408  53.3200000
 114.3839408 136.4509408  56.5200000 114.4989408 137.3369408  56.1780000
 114.0379408 136.5779408  57.4040000 119.1759408 130.3779408  52.4850000
 118.2839408 130.5879408  52.2080000 119.0939408 130.1619408  53.4140000
 117.5159408 131.6489408  48.8270000 117.5849408 130.6959408  48.7670000
 117.6049408 131.8379408  49.7610000 118.1189408 133.0759408  53.9840000
 118.7619408 132.6759408  54.5710000 117.4529408 133.4369408  54.5690000
  90.9759408 133.9229408  56.7960000  91.2779408 134.0099408  57.7000000
  91.7439408 133.6149408  56.3150000 114.1129408 121.7349408  58.1150000
 114.7809408 121.4299408  57.5010000 114.4059408 122.6089408  58.3730000
 111.7639408 133.3609408  32.3840000 111.7739408 133.7069408  31.4920000
 110.9559408 132.8499408  32.4340000  90.6829408 124.4809408  56.5800000
  90.8219408 124.3349408  55.6450000  90.8769408 125.4089408  56.7100000
 118.0309408 145.7699408  30.2010000 117.6519408 146.3839408  29.5710000
 118.7909408 146.2309408  30.5560000  92.9169408 130.2559408  52.9200000
  92.3259408 130.8239408  52.4250000  93.4999408 130.8599408  53.3800000
 111.1939408 124.9999408  54.4080000 110.3499408 125.2639408  54.7730000
 111.2559408 124.0639408  54.5980000 116.5439408 125.5789408  55.9390000
 115.8209408 124.9659408  55.8060000 117.3229408 125.0939408  55.6660000
 118.7599408 148.1839408  33.0480000 118.8759408 147.2849408  33.3560000
 119.4779408 148.3219408  32.4310000  92.6489408 127.0719408  53.3300000
  92.9159408 127.8839408  52.8980000  92.1039408 126.6239408  52.6820000
 112.4329408 144.4709408  30.8190000 111.6569408 144.3989408  31.3750000
 112.5059408 143.6149408  30.3970000 117.0089408 127.7539408  50.9100000
 117.1639408 127.5669408  51.8360000 116.1749408 127.3249408  50.7160000
  93.2349408 138.6979408  54.7910000  92.6099408 137.9739408  54.8150000
  94.0829408 138.2909408  54.9680000  95.1829408 135.2449408  58.7310000
  95.2499408 134.6459408  57.9880000  96.0909408 135.4169408  58.9820000
 109.5569408 139.2589408  34.7920000 109.8279408 138.5009408  34.2750000
 109.5719408 139.9889408  34.1730000 116.9399408 130.5709408  35.5480000
 117.2969408 131.4359408  35.7460000 117.5429408 130.2049408  34.9000000
 112.1869408 127.3489408  53.2340000 112.6329408 127.2299408  52.3960000
 111.9849408 126.4599408  53.5270000 113.0549408 146.8219408  45.9560000
 112.1179408 146.8199408  46.1500000 113.1779408 146.0819408  45.3610000
 116.0829408 134.9759408  52.9120000 116.8299408 134.5689408  52.4730000
 116.1679408 134.7089408  53.8270000  91.7139408 124.7479408  34.2270000
  91.3929408 124.3309408  33.4270000  91.0859408 124.4889408  34.9010000
 116.7119408 148.8939408  31.2240000 117.5319408 148.5429408  31.5710000
 116.3319408 149.3829408  31.9540000 114.2559408 143.5429408  48.3680000
 114.2759408 142.7569408  48.9150000 115.1489408 143.6239408  48.0320000
 117.4089408 148.0439408  58.3580000 116.8659408 148.5749408  58.9420000
 118.0689408 148.6529408  58.0260000  96.1619408 141.5309408  55.3790000
  96.6229408 142.3089408  55.0660000  96.8009408 140.8229408  55.2930000
 114.1759408 138.5089408  31.7660000 114.5339408 139.3739408  31.5650000
 114.8279408 138.1069408  32.3410000 115.2449408 135.1359408  49.2390000
 114.6809408 135.3399408  49.9860000 115.0279408 135.8009408  48.5860000
 117.8889408 122.9389408  30.7890000 117.1389408 122.3659408  30.9500000
 117.5709408 123.8159408  31.0000000 107.5889408 125.9449408  51.8650000
 107.9269408 125.0509408  51.9150000 108.2399408 126.4199408  51.3480000
 108.6329408 123.7929408  57.6990000 109.4459408 123.2949408  57.6140000
 108.5859408 124.0199408  58.6280000 119.2179408 131.7099408  56.2810000
 119.3859408 131.1539408  57.0420000 119.5759408 132.5639408  56.5240000
 110.0679408 126.6019408  50.6770000 110.4109408 125.7399408  50.4420000
 110.8469408 127.1369408  50.8290000 119.4139408 123.1659408  46.0720000
 119.2369408 122.3849408  46.5970000 118.9069408 123.8589408  46.4960000
 116.1419408 132.3979408  57.6270000 115.4329408 132.2329408  58.2480000
 116.9029408 132.5879408  58.1750000 107.8799408 127.6249408  54.1220000
 107.7579408 126.6759408  54.0920000 107.0159408 127.9709408  54.3480000
 111.5639408 135.6829408  55.4200000 112.2419408 135.5029408  56.0710000
 111.3869408 134.8329408  55.0160000 119.8499408 122.5939408  58.7080000
 119.3119408 122.9239408  59.4270000 119.7199408 123.2259408  58.0010000
 114.0009408 124.7069408  35.0710000 113.8849408 124.5229408  34.1390000
 114.2479408 123.8649408  35.4530000 118.6979408 124.9809408  53.9730000
 119.2289408 125.6649408  54.3820000 119.2709408 124.2149408  53.9480000
  92.5169408 123.7909408  58.9940000  92.3399408 124.7299408  59.0370000
  92.0049408 123.4829408  58.2460000  99.8899408 131.8059408  47.1790000
 100.2009408 131.2239408  47.8720000 100.1229408 131.3559408  46.3660000
  92.2539408 135.9619408  54.7120000  91.4929408 135.4689408  54.4070000
  93.0069408 135.4519408  54.4130000 110.1359408 136.2199408  58.9780000
 109.9219408 135.3049408  58.7990000 110.5769408 136.2019408  59.8280000
 110.0029408 129.2039408  53.4090000 110.8009408 128.6759408  53.4560000
 109.3039408 128.6049408  53.6730000 113.6059408 132.7209408  44.1930000
 113.3069408 132.6279408  43.2890000 113.8659408 133.6389408  44.2670000
 111.9269408 138.4589408  57.4240000 111.6859408 139.2179408  57.9550000
 111.2059408 137.8409408  57.5460000 110.6599408 140.6539408  58.5530000
 110.8069408 140.9329408  59.4560000 110.5649408 141.4699408  58.0610000
 113.0969408 127.0939408  50.7320000 113.5719408 127.7899408  50.2780000
 113.5829408 126.2959408  50.5220000  90.1209408 127.1739408  55.0360000
  91.0009408 127.3079408  54.6820000  89.6779408 128.0119408  54.9010000
 111.2829408 124.2129408  40.2370000 112.1709408 124.4309408  40.5200000
 110.9569408 125.0169408  39.8310000  95.2779408 131.5559408  37.5480000
  94.8449408 130.9229408  38.1220000  95.5749408 132.2489408  38.1370000
  96.0519408 126.0389408  42.9900000  96.7619408 125.9259408  42.3580000
  95.9799408 126.9859408  43.1040000 115.8779408 134.2189408  55.3820000
 115.9199408 133.5969408  56.1090000 115.3539408 134.9449408  55.7190000
 116.9689408 146.1229408  52.1750000 117.8909408 146.2139408  52.4190000
 116.8059408 146.8519408  51.5770000  90.5089408 129.7659408  43.8980000
  89.8269408 129.7809408  44.5700000  90.2249408 129.0889408  43.2830000
 112.0069408 133.9469408  46.1180000 112.6479408 133.3789408  45.6900000
 112.4899408 134.3509408  46.8390000 111.3509408 143.5839408  57.1550000
 112.0519408 144.1379408  56.8110000 110.8199408 144.1729408  57.6900000
  93.1369408 135.9089408  47.4420000  93.2879408 136.7359408  47.8990000
  92.3239408 136.0479408  46.9560000 114.1139408 123.7159408  51.1230000
 114.5879408 124.4759408  50.7840000 114.5419408 123.5189408  51.9560000
  89.8739408 129.2279408  57.4500000  90.4399408 129.4969408  56.7260000
  90.4529408 128.7489408  58.0430000 103.7419408 126.4529408  45.6390000
 104.2449408 126.8479408  44.9270000 103.4279408 127.1979408  46.1520000
 118.1879408 132.5169408  59.3490000 119.0379408 132.9559408  59.3450000
 118.2049408 131.9679408  60.1330000  93.9139408 134.3159408  50.0960000
  93.3239408 135.0459408  50.2810000  93.8699408 134.2069408  49.1460000
 109.3529408 129.0949408  49.9650000 108.9699408 129.8979408  50.3180000
 109.1119408 128.4159408  50.5960000 107.2159408 122.2419408  44.2630000
 107.4569408 121.6839408  45.0030000 106.9959408 123.0849408  44.6600000
  95.4609408 134.3169408  56.1370000  94.8509408 133.6819408  55.7600000
  96.2679408 133.8219408  56.2740000  96.1759408 123.6459408  53.8610000
  97.0319408 123.4339408  54.2340000  95.6269408 123.8449408  54.6190000
  90.6509408 134.1239408  53.5250000  89.7119408 133.9479408  53.5810000
  90.9809408 133.4709408  52.9080000  92.0539408 132.5049408  51.6720000
  92.7779408 133.0489408  51.3630000  91.3189408 132.7389408  51.1060000
 117.4739408 128.2959408  37.3770000 117.0789408 129.0559408  36.9490000
 117.4529408 127.6089408  36.7110000  94.6389408 128.2059408  30.3610000
  94.5499408 129.1419408  30.5400000  95.5799408 128.0399408  30.4160000
  93.5789408 125.2939408  44.7230000  94.2869408 125.7469408  44.2640000
  92.8469408 125.9109408  44.7040000 104.3679408 128.5949408  50.4910000
 104.4269408 129.5469408  50.5680000 104.3979408 128.4279408  49.5490000
  92.4339408 149.4479408  51.3220000  91.7669408 148.7629408  51.3040000
  92.1439408 150.0829408  50.6670000 109.6399408 137.0629408  51.6660000
 110.2749408 137.2579408  52.3550000 109.4069408 137.9179408  51.3040000
 117.1349408 132.3819408  51.4320000 116.3539408 131.8949408  51.6950000
 117.7049408 132.3559408  52.2000000  91.7099408 124.5589408  47.3620000
  91.2679408 124.1129408  46.6390000  91.0809408 125.2169408  47.6580000
  93.7859408 123.1389408  35.5410000  94.7399408 123.2159408  35.5740000
  93.5029408 123.8839408  35.0110000 112.3099408 130.3559408  51.7640000
 111.7209408 131.1059408  51.6740000 111.7629408 129.6659408  52.1410000
 118.6129408 140.5529408  50.3810000 119.2029408 140.8629408  51.0670000
 118.5069408 141.3039408  49.7970000 108.5159408 145.7009408  30.7170000
 108.6129408 146.6029408  31.0230000 109.1969408 145.5999408  30.0510000
 114.3199408 135.3179408  43.4330000 113.7379408 136.0469408  43.2200000
 114.8819408 135.6559408  44.1310000 112.5469408 135.5769408  34.2880000
 111.8889408 136.0879408  33.8160000 112.4899408 134.7009408  33.9070000
 109.5539408 120.0589408  47.2370000 109.8519408 120.3489408  46.3750000
 108.6799408 120.4369408  47.3290000 114.5779408 146.1839408  49.7680000
 115.3119408 145.7339408  49.3490000 113.8019408 145.8429408  49.3220000
 111.9709408 149.7309408  34.2900000 111.4919408 150.5529408  34.3860000
 112.2929408 149.5359408  35.1700000 109.7779408 143.9979408  43.5600000
 110.2779408 144.1409408  42.7560000 110.3799408 143.5269408  44.1360000
 106.2369408 122.5929408  37.0360000 106.4979408 121.7169408  36.7530000
 107.0569408 123.0199408  37.2820000 107.8549408 123.6489408  38.8230000
 108.0219408 124.5789408  38.9790000 107.6949408 123.2839408  39.6930000
 110.3289408 144.1079408  32.8240000 109.6049408 144.5969408  32.4350000
 110.2499408 144.2699408  33.7640000 111.6989408 120.0119408  49.4060000
 112.3109408 119.7979408  48.7010000 110.9559408 120.4209408  48.9620000
 117.1489408 141.4149408  38.1260000 117.0169408 141.9989408  38.8730000
 116.3659408 140.8649408  38.1090000 111.1139408 122.1109408  34.7390000
 111.1109408 122.6599408  35.5240000 111.5609408 122.6399408  34.0780000
 112.0079408 130.1399408  46.2200000 111.9829408 130.3189408  45.2790000
 112.8879408 129.7949408  46.3750000 106.6089408 138.0909408  43.3550000
 106.7289408 137.5009408  42.6110000 107.4469408 138.5439408  43.4390000
 117.8639408 137.4319408  39.3610000 117.7469408 137.2979408  40.3010000
 118.3079408 138.2779408  39.2930000  91.0329408 145.6039408  43.9710000
  90.2089408 145.2399408  44.2930000  91.2309408 145.0919408  43.1870000
  91.9339408 149.6879408  48.6420000  92.2469408 148.7839408  48.6550000
  91.5109408 149.7829408  47.7880000  91.1559408 138.4609408  50.0400000
  90.2709408 138.7809408  49.8660000  91.0349408 137.5459408  50.2950000
  92.0799408 148.3339408  33.5080000  91.6479408 148.7749408  32.7770000
  92.4669408 149.0439408  34.0210000 107.4589408 139.6149408  36.9330000
 106.5709408 139.2699408  37.0270000 107.7209408 139.3639408  36.0470000
 115.5019408 145.3549408  58.7860000 116.3499408 144.9159408  58.7100000
 115.0439408 145.1329408  57.9750000 116.6749408 137.5639408  43.5590000
 116.2789408 137.7839408  44.4030000 116.8119408 136.6169408  43.5990000
 109.9319408 143.5469408  35.4520000 109.4589408 142.7149408  35.4690000
 110.8459408 143.3059408  35.6030000 113.0439408 141.6259408  43.4910000
 112.5689408 141.6099408  42.6600000 113.9519408 141.4399408  43.2520000
 111.5259408 147.0239408  33.9340000 111.8329408 146.7029408  33.0860000
 111.8009408 147.9409408  33.9570000 112.5659408 143.1829408  36.2490000
 112.5139408 142.3989408  36.7960000 113.4839408 143.2299408  35.9820000
  92.7359408 143.2419408  51.7040000  92.8889408 143.6109408  50.8350000
  92.5469408 143.9999408  52.2570000 115.2289408 123.2469408  42.4100000
 114.8559408 122.6399408  41.7710000 116.0849408 123.4789408  42.0500000
  93.0529408 146.7679408  45.5720000  92.4119408 146.2939408  45.0430000
  93.1159408 147.6289408  45.1590000 114.1119408 141.8259408  33.7350000
 114.7569408 142.4489408  34.0690000 114.4369408 141.5849408  32.8680000
 115.3229408 136.5199408  33.7300000 115.4299408 135.8639408  33.0410000
 114.4889408 136.2979408  34.1450000  91.2079408 144.3789408  58.9760000
  90.7519408 143.5889408  59.2650000  92.1189408 144.1049408  58.8680000
 115.6729408 140.8899408  53.2500000 115.9379408 141.6929408  52.8020000
 115.0279408 140.4909408  52.6670000 118.0719408 135.0429408  44.1250000
 118.3279408 134.1539408  43.8810000 118.7059408 135.6059408  43.6790000
 111.4969408 137.6769408  38.9910000 110.6869408 137.9649408  39.4120000
 111.2069408 137.1699408  38.2330000 111.3089408 141.2979408  40.9070000
 110.3719408 141.3809408  41.0840000 111.3559408 140.9219408  40.0280000
 109.9409408 145.9629408  58.3800000 109.0549408 146.3189408  58.3170000
 110.3819408 146.2749408  57.5900000 112.7679408 139.3119408  47.3790000
 112.3009408 140.0629408  47.0110000 113.4259408 139.6989408  47.9570000
 109.7129408 141.5399408  37.5910000 109.1179408 140.8719408  37.2500000
 110.5109408 141.0599408  37.8100000 113.7039408 137.7479408  40.5130000
 114.1529408 136.9339408  40.2860000 112.9529408 137.7799408  39.9200000
 117.4709408 145.8359408  36.5070000 117.7579408 144.9329408  36.6370000
 117.3959408 145.9299408  35.5570000 117.1539408 145.2229408  48.8610000
 117.2309408 144.5909408  48.1470000 117.9429408 145.7599408  48.7930000
 118.9979408 135.2499408  47.3840000 118.6679408 135.0439408  48.2580000
 118.5579408 134.6249408  46.8080000 107.0249408 142.7099408  47.6690000
 106.8809408 142.0149408  47.0260000 106.7759408 143.5139408  47.2140000
 115.5159408 122.1409408  32.2740000 114.6969408 122.6339408  32.2290000
 115.2789408 121.3189408  32.7030000 117.8379408 136.4779408  34.9610000
 117.1649408 136.4449408  34.2810000 118.2269408 137.3489408  34.8720000
 108.1619408 131.4479408  48.1310000 108.1129408 131.6889408  49.0560000
 109.0279408 131.7449408  47.8520000 101.7949408 124.1809408  45.4660000
 101.0579408 124.3869408  46.0420000 102.4969408 124.7619408  45.7580000
 114.6279408 149.7129408  33.2650000 113.6809408 149.5999408  33.3410000
 114.9819408 149.3039408  34.0550000 114.1549408 148.4689408  38.6710000
 114.9869408 147.9959408  38.6860000 113.5239408 147.8559408  39.0480000
 117.6299408 148.3429408  37.5860000 117.5669408 147.3909408  37.5050000
 117.5549408 148.5079408  38.5260000 116.7179408 143.2369408  47.1170000
 117.0469408 143.5299408  46.2670000 116.4409408 142.3329408  46.9690000
 118.6429408 143.4169408  32.1320000 119.5469408 143.7219408  32.2000000
 118.2299408 144.0239408  31.5180000 108.1019408 149.3339408  43.8490000
 108.8249408 149.9569408  43.9170000 108.5209408 148.5029408  43.6270000
  90.8829408 135.8929408  50.9960000  91.0199408 135.6469408  51.9110000
  90.0429408 135.4959408  50.7640000 119.7119408 147.0349408  48.1520000
 119.5509408 147.4989408  47.3300000 119.2639408 147.5589408  48.8150000
  97.1339408 143.6299408  47.5170000  96.9599408 144.4419408  47.0430000
  97.4829408 143.0339408  46.8540000  94.8129408 140.6049408  50.3340000
  94.8989408 141.5329408  50.5520000  94.8869408 140.1529408  51.1740000
 115.3029408 146.0099408  41.7730000 115.0519408 145.5969408  40.9470000
 114.6769408 146.7259408  41.8830000 105.4609408 143.4619408  33.0360000
 105.9439408 143.2799408  32.2300000 105.3659408 142.6069408  33.4560000
 103.5109408 147.9189408  45.3630000 104.4469408 147.8499408  45.5500000
 103.2639408 147.0499408  45.0470000 115.1669408 145.1589408  31.8110000
 114.2559408 144.8679408  31.8270000 115.3879408 145.2049408  30.8810000
 111.1539408 147.1659408  36.5480000 111.4189408 146.9389408  35.6570000
 111.5359408 148.0299408  36.7000000 107.0539408 146.8609408  58.2050000
 106.3929408 147.1089408  58.8510000 106.5519408 146.4939408  57.4770000
 106.0469408 124.5639408  45.7710000 106.0809408 124.5099408  46.7260000
 105.4529408 125.2939408  45.5940000  92.8799408 147.4629408  42.2670000
  92.0239408 147.0379408  42.2150000  93.2679408 147.3299408  41.4030000
 118.6919408 139.2009408  33.8620000 119.5599408 138.8229408  33.7170000
 118.1619408 138.8679408  33.1380000 117.3199408 138.8899408  31.5420000
 117.8129408 139.1749408  30.7720000 117.3469408 137.9339408  31.5040000
  90.1709408 145.8719408  33.6420000  90.6029408 145.3299408  32.9810000
  90.8439408 146.4929408  33.9200000 111.9069408 140.2649408  38.2860000
 111.7919408 139.3209408  38.3890000 112.4119408 140.3589408  37.4790000
 110.8209408 145.7819408  41.5460000 110.6039408 145.9449408  40.6280000
 110.7959408 146.6459408  41.9560000 117.3569408 121.1799408  36.2670000
 117.6309408 121.6629408  35.4870000 118.0139408 120.4909408  36.3660000
 108.4929408 140.8929408  41.3400000 108.2899408 140.2629408  40.6490000
 107.8709408 141.6069408  41.2050000 117.5929408 148.9229408  40.4380000
 117.4519408 149.3709408  41.2720000 118.5019408 148.6269408  40.4740000
  99.8979408 148.3239408  47.5680000 100.5479408 147.6229408  47.5210000
  99.0609408 147.8869408  47.4100000  90.6229408 145.0849408  49.8260000
  91.5509408 144.8679408  49.9130000  90.5909408 145.7159408  49.1080000
 102.2699408 136.4249408  58.7760000 102.9509408 137.0969408  58.8060000
 102.4539408 135.9319408  57.9760000 119.5049408 129.6089408  33.9390000
 119.2369408 129.4409408  33.0360000 120.3389408 129.1489408  34.0320000
 114.9399408 148.5519408  42.8940000 115.6679408 148.0659408  43.2810000
 115.3499408 149.3119408  42.4820000 116.2609408 140.5759408  46.5330000
 115.9599408 139.7359408  46.1870000 117.1519408 140.4039408  46.8380000
  90.9209408 149.9589408  39.9480000  91.4189408 149.3979408  39.3520000
  90.0779408 150.0829408  39.5120000  90.1289408 120.2789408  36.1440000
  90.1339408 120.2069408  35.1890000  90.6739408 119.5509408  36.4420000
 110.1059408 146.3139408  38.9570000 110.3829408 146.3689408  38.0430000
 109.8789408 147.2129408  39.1940000 113.6379408 149.1839408  57.3740000
 113.8629408 148.6559408  58.1400000 113.7149408 150.0889408  57.6760000
 107.8029408 121.4979408  32.0150000 107.8179408 121.3079408  32.9530000
 107.9959408 120.6579408  31.5970000 111.2849408 141.4409408  33.2030000
 112.1909408 141.6019408  33.4660000 110.9289408 142.3109408  33.0260000
 114.8339408 138.1349408  45.5300000 115.1179408 137.2749408  45.8380000
 114.2629408 138.4619408  46.2250000 115.9399408 143.0769408  40.1740000
 115.0409408 142.8989408  40.4490000 115.8779408 143.8789408  39.6550000
  97.8459408 124.6539408  58.8310000  98.2209408 124.7389408  59.7070000
  97.3629408 123.8279408  58.8550000  90.5509408 143.0329408  38.3860000
  90.1859408 143.4379408  37.6000000  89.8569408 143.1109408  39.0410000
 111.0919408 122.8469408  57.7180000 111.6289408 122.2659408  58.2570000
 111.7059408 123.5029408  57.3870000 109.0939408 145.2559408  47.6310000
 108.8449408 145.5209408  48.5160000 108.5189408 144.5169408  47.4310000
 114.6889408 146.4959408  53.9890000 115.4609408 146.4079408  53.4300000
 114.0209408 145.9579408  53.5630000 109.7889408 147.3129408  53.2930000
 110.5389408 147.1429408  52.7230000 109.6029408 148.2449408  53.1720000
 116.0789408 148.6559408  35.3270000 116.5179408 148.9459408  36.1270000
 116.5309408 147.8469408  35.0860000 111.9989408 147.5469408  31.0180000
 112.9239408 147.6119408  30.7810000 111.7279408 146.6889408  30.6910000
 107.6129408 140.7449408  33.2240000 107.4149408 139.8939408  32.8320000
 107.7729408 141.3209408  32.4770000 118.7029408 143.2359408  50.3090000
 119.5569408 143.6369408  50.1500000 118.0819408 143.8059408  49.8540000
 109.1839408 142.3919408  49.3730000 108.8759408 142.0519408  50.2130000
 108.3959408 142.4469408  48.8330000 118.9259408 139.3549408  59.1130000
 118.4939408 139.0299408  58.3230000 119.7449408 138.8629408  59.1590000
 112.4529408 142.8319408  54.3870000 113.2899408 143.2969408  54.4070000
 111.9209408 143.3219408  53.7600000 119.3329408 140.1069408  39.6110000
 120.1389408 140.5079408  39.2850000 118.7129408 140.1949408  38.8870000
 119.7389408 121.2499408  52.7270000 119.9719408 120.5979408  52.0660000
 118.7969408 121.1349408  52.8560000 104.6139408 144.3099408  58.8680000
 103.7559408 144.7329408  58.8890000 105.0889408 144.7639408  58.1720000
  91.4839408 140.5129408  56.1210000  91.9909408 139.8839408  55.6070000
  90.8779408 140.9039408  55.4910000 116.4009408 130.1289408  59.6700000
 116.3809408 130.6799408  60.4520000 116.2529408 130.7369408  58.9450000
 119.0999408 146.4319408  55.9860000 118.5239408 146.4859408  56.7480000
 118.5919408 145.9469408  55.3350000 117.4289408 144.6289408  54.5640000
 116.6139408 144.5409408  54.0710000 117.3679408 143.9629408  55.2490000
 116.4519408 138.2429408  53.9800000 116.5979408 139.0739408  53.5290000
 115.5169408 138.0689408  53.8690000 116.6279408 125.1689408  60.1560000
 115.8039408 124.7719408  59.8740000 116.6229408 126.0389408  59.7570000
  92.8429408 145.7119408  53.1490000  93.7689408 145.4969408  53.0340000
  92.8479408 146.5679408  53.5780000 113.8769408 141.7659408  57.1800000
 114.5629408 142.2469408  56.7180000 113.0929408 142.3049408  57.0720000
 118.0669408 135.0089408  50.1910000 118.0739408 135.9439408  49.9830000
 117.1889408 134.8459408  50.5340000 116.0639408 137.5379408  58.8710000
 116.7539408 136.9079408  58.6660000 116.4249408 138.3839408  58.6060000
 119.9059408 148.0329408  51.8660000 119.3759408 148.3819408  52.5830000
 120.0419408 147.1129408  52.0930000 117.5559408 143.3009408  58.4550000
 118.1949408 143.8009408  58.9620000 118.0589408 142.9369408  57.7270000
 117.8099408 137.9179408  56.6380000 117.3599408 138.3039408  55.8870000
 117.8709408 136.9859408  56.4280000 110.8229408 140.4389408  54.5460000
 111.4419408 141.1659408  54.6110000 110.8099408 140.2179408  53.6140000
 116.1169408 120.6769408  56.5390000 115.8869408 120.0879408  55.8210000
 116.9099408 120.2969408  56.9170000 114.0979408 132.2559408  59.3850000
 113.7049408 133.1289408  59.3770000 113.3609408 131.6629408  59.5350000
  93.7959408 122.6399408  31.5360000  93.1589408 123.0979408  30.9870000
  93.2689408 122.0539408  32.0780000 119.0779408 142.0099408  56.4940000
 119.7929408 141.5059408  56.8830000 119.4689408 142.4279408  55.7270000
 116.4579408 142.1029408  55.8250000 117.2999408 141.6859408  56.0080000
 116.1359408 141.6579408  55.0400000 114.2699408 149.2149408  54.6630000
 114.2869408 148.9489408  55.5820000 114.4699408 148.4149408  54.1780000
 109.3969408 142.8279408  55.2380000 109.5079408 142.1059408  54.6190000
 110.1119408 142.7199408  55.8640000 110.7379408 123.9019408  50.2470000
 110.8629408 123.9519408  49.3000000 111.6089408 124.0529408  50.6130000
 119.0199408 148.8129408  54.3330000 119.8619408 149.1639408  54.6250000
 118.8459408 148.0819408  54.9260000 106.8359408 121.2099408  57.0900000
 107.4759408 120.5949408  57.4500000 107.1229408 122.0669408  57.4050000
 116.1579408 146.4039408  33.9090000 115.6669408 147.2129408  34.0520000
 115.8099408 146.0549408  33.0890000 107.0399408 148.4119408  54.8180000
 107.5809408 148.5059408  55.6020000 107.1749408 147.5059408  54.5410000
 113.6199408 144.9529408  52.0760000 112.8519408 144.5989408  51.6270000
 114.1499408 145.3379408  51.3780000 111.2529408 143.5169408  50.7880000
 110.5179408 143.0819408  50.3570000 110.8559408 143.9929408  51.5170000
  93.1729408 149.6979408  53.8650000  92.8949408 149.4999408  52.9710000
  93.6089408 150.5479408  53.7990000 114.4219408 129.4159408  50.1160000
 115.2529408 129.6309408  50.5400000 113.7539408 129.7569408  50.7110000
  92.7039408 141.1609408  30.5350000  91.8629408 141.6189408  30.5440000
  92.8899408 141.0209408  29.6060000 108.5739408 146.5729408  49.9790000
 109.3969408 147.0059408  50.2050000 107.9349408 146.9379408  50.5900000
 113.9579408 121.6669408  53.3620000 113.0839408 121.9459408  53.6370000
 114.0009408 120.7409408  53.6010000 118.8059408 136.1259408  59.0390000
 119.4149408 136.8549408  58.9240000 119.3669408 135.3549408  59.1220000
 113.5929408 140.4459408  36.1030000 114.4549408 140.0469408  36.2220000
 113.6239408 140.8299408  35.2270000 111.0189408 141.9559408  47.3460000
 110.6409408 142.0609408  48.2200000 111.4569408 142.7889408  47.1720000
 119.3579408 126.4659408  51.7420000 118.9689408 126.1709408  50.9190000
 119.0259408 125.8529408  52.3980000  95.0389408 140.2599408  53.3180000
  95.4329408 140.8059408  53.9980000  94.2329408 139.9279408  53.7140000
 114.5659408 147.9129408  59.5880000 114.9279408 147.0679408  59.3220000
 115.1819408 148.2429408  60.2420000 112.3159408 120.6029408  30.0200000
 112.8489408 120.3259408  30.7650000 112.9519408 120.8169408  29.3370000
  92.0639408 122.4419408  49.6400000  92.0359408 123.1009408  48.9460000
  91.3919408 121.8059408  49.3950000 106.0279408 149.2599408  48.5900000
 105.0909408 149.1729408  48.4130000 106.1359408 148.9249408  49.4800000
 110.3859408 144.2079408  53.2040000 110.0829408 145.1069408  53.3300000
 109.8389408 143.6859408  53.7910000  90.8689408 126.2169408  30.9050000
  91.1979408 126.6709408  30.1290000  91.6129408 126.1979408  31.5060000
  94.5629408 145.8619408  55.9740000  93.6279408 146.0279408  56.0910000
  94.7009408 144.9909408  56.3480000 100.0009408 146.2329408  51.9690000
 100.8279408 145.7619408  52.0740000 100.2609408 147.1449408  51.8330000
 103.1139408 149.2469408  48.1040000 103.4209408 148.6579408  47.4150000
 102.3449408 149.6749408  47.7280000  94.1209408 133.6749408  73.7610000
  94.0209408 134.4239408  74.3480000  94.6659408 133.0579408  74.2490000
 109.4019408 137.0039408  63.4620000 109.3069408 136.1259408  63.8320000
 108.6369408 137.1089408  62.8970000  96.9639408 147.2739408  64.1330000
  96.2589408 146.7169408  64.4630000  96.9889408 148.0129408  64.7410000
 111.1249408 121.1489408  81.7350000 110.9649408 120.2999408  81.3230000
 111.6349408 121.6379408  81.0890000  96.7109408 138.7099408  81.4700000
  96.3839408 139.3649408  82.0880000  97.6529408 138.8729408  81.4250000
 101.8849408 131.9679408  72.0810000 101.2899408 131.2449408  72.2800000
 102.7569408 131.5759408  72.1090000  95.8789408 126.9689408  68.7010000
  95.4139408 126.1719408  68.4480000  95.9029408 127.4959408  67.9020000
 105.1049408 137.8279408  75.6050000 104.2939408 137.6459408  75.1300000
 105.7899408 137.7719408  74.9380000  90.6359408 134.0729408  68.5360000
  89.8129408 134.3929408  68.1640000  90.9089408 133.3719408  67.9450000
 108.8559408 138.6129408  69.2840000 108.4689408 138.1719408  70.0410000
 108.1489408 139.1559408  68.9360000  99.0639408 128.6819408  77.8260000
  98.4579408 128.2489408  78.4280000  99.3939408 127.9759408  77.2700000
 101.2259408 131.3479408  65.7040000 100.6419408 131.7979408  66.3140000
 101.6789408 130.6969408  66.2400000 107.4669408 135.2269408  77.9080000
 107.9479408 135.1439408  78.7320000 108.1319408 135.1079408  77.2300000
 112.0799408 129.5039408  66.3360000 111.9909408 129.7379408  65.4120000
 112.7389408 130.1109408  66.6740000  95.6149408 133.6859408  68.9500000
  95.7649408 133.7169408  69.8950000  94.7539408 134.0859408  68.8300000
 119.3079408 138.9599408  75.2020000 119.6479408 139.5329408  75.8900000
 119.8979408 139.0979408  74.4610000 102.9309408 145.5519408  74.1980000
 103.8639408 145.3599408  74.1090000 102.5239408 145.1209408  73.4470000
 118.0369408 125.5629408  65.5490000 117.0969408 125.6829408  65.4130000
 118.2159408 124.6789408  65.2300000 108.3629408 141.3589408  60.6810000
 107.7089408 142.0489408  60.5670000 108.2789408 140.8169408  59.8970000
 100.6849408 135.9839408  66.6650000 101.1339408 136.8249408  66.7490000
  99.8769408 136.0929408  67.1670000 118.7999408 129.9389408  75.7730000
 117.8609408 129.9999408  75.5990000 118.8569408 129.5959408  76.6650000
  92.3889408 140.7699408  63.8460000  93.1819408 141.3059408  63.8470000
  92.6729408 139.9199408  64.1820000 107.9779408 134.4559408  70.6650000
 107.2519408 134.3639408  70.0480000 107.7039408 133.9559408  71.4340000
 103.5299408 134.6779408  60.5350000 102.9009408 133.9769408  60.7060000
 103.0779408 135.2629408  59.9270000 106.9329408 142.0279408  73.3670000
 107.2779408 142.9039408  73.1980000 107.6629408 141.4399408  73.1730000
 101.7599408 143.1179408  68.5430000 101.6899408 143.8819408  67.9720000
 102.0759408 142.4179408  67.9710000 104.5309408 146.0489408  61.8910000
 105.1549408 146.0429408  61.1650000 104.9719408 145.5639408  62.5890000
  91.5889408 127.8679408  65.1380000  91.9129408 127.0799408  64.7030000
  92.3749408 128.2939408  65.4810000  94.3779408 121.6949408  76.6380000
  93.4469408 121.8319408  76.4640000  94.7679408 121.5709408  75.7730000
 101.0189408 122.1809408  78.1460000 100.7569408 123.1019408  78.1390000
 101.6919408 122.1279408  78.8240000 105.1549408 120.6799408  68.8720000
 104.7649408 121.4279408  68.4200000 105.0899408 119.9599408  68.2450000
 105.4189408 134.0349408  73.0950000 104.8099408 133.9809408  73.8320000
 104.8679408 134.2559408  72.3440000  96.8749408 146.9259408  69.7580000
  97.0919408 147.8089408  70.0560000  97.0169408 146.9499408  68.8120000
 118.5349408 135.5709408  67.6430000 118.4489408 136.1489408  66.8850000
 118.1879408 136.0809408  68.3750000  98.3539408 126.3839408  63.5020000
  99.0179408 126.9059408  63.0520000  97.9879408 126.9769408  64.1590000
 114.3849408 129.4109408  77.3650000 114.7209408 128.5179408  77.2950000
 114.2909408 129.5589408  78.3060000  97.7939408 133.7699408  67.0920000
  97.1589408 133.5089408  67.7590000  98.3649408 133.0079408  66.9930000
  99.0859408 122.8069408  72.3010000  99.2659408 123.2629408  71.4790000
  99.7729408 123.1059408  72.8980000 105.8509408 133.9929408  69.0110000
 105.1649408 134.5659408  68.6690000 105.4019408 133.1709408  69.2080000
  97.6489408 137.3009408  72.5020000  97.1329408 137.8939408  73.0490000
  97.6139408 136.4609408  72.9600000 112.4549408 123.6049408  62.6640000
 111.6819408 123.5749408  62.1000000 112.7979408 124.4919408  62.5530000
 111.2289408 140.5009408  74.9470000 110.8759408 141.0379408  75.6570000
 111.9479408 141.0209408  74.5870000 101.1919408 146.2969408  61.5580000
 101.2509408 147.2469408  61.6600000 101.6389408 145.9449408  62.3270000
  94.6869408 123.6109408  72.3470000  93.8339408 123.9499408  72.0730000
  95.2309408 124.3909408  72.4540000 101.3659408 140.8169408  72.9800000
 101.3449408 141.5859408  72.4090000 102.2869408 140.5579408  72.9990000
 105.5709408 124.5019408  83.2080000 106.1229408 125.1429408  82.7600000
 105.2669408 123.9189408  82.5130000 104.5329408 139.5259408  67.8070000
 104.0209408 138.9609408  68.3850000 103.9069408 140.1799408  67.4950000
  94.9169408 134.0799408  66.0540000  95.2429408 133.2809408  66.4690000
  94.3959408 134.5079408  66.7330000 101.9419408 124.9309408  78.4310000
 102.8109408 125.3169408  78.3240000 101.7659408 124.9919408  79.3700000
  92.9999408 143.7209408  64.9930000  92.5599408 143.1309408  65.6050000
  93.7909408 143.2499408  64.7310000  99.3909408 125.9979408  73.5600000
  98.4679408 125.8209408  73.7410000  99.5449408 125.6099408  72.6990000
  96.4589408 139.0469408  74.2110000  95.7969408 138.9559408  74.8960000
  97.0899408 139.6709408  74.5690000 102.7269408 124.7419408  73.0350000
 103.5559408 124.2759408  72.9230000 102.3699408 124.4009408  73.8560000
 100.9189408 135.5149408  71.9010000 100.0709408 135.1079408  71.7250000
 100.7289408 136.4519408  71.9560000 101.2779408 128.6519408  69.3500000
 101.3409408 127.9429408  69.9910000 100.6729408 129.2789408  69.7440000
  97.3769408 148.8119408  61.6800000  96.6809408 148.2869408  61.2850000
  97.2869408 148.6599408  62.6210000 105.6899408 138.6069408  64.5490000
 105.8669408 138.6029408  63.6090000 106.2479408 137.9129408  64.9010000
  96.0069408 120.8799408  64.4630000  96.8559408 120.4709408  64.2940000
  96.1609408 121.8149408  64.3310000  99.4119408 128.7209408  66.5640000
  99.9009408 128.4549408  67.3430000 100.0189408 129.2819408  66.0810000
 100.9679408 138.3959408  75.9660000 101.6029408 137.8829408  75.4660000
 100.1389408 137.9329408  75.8490000  99.0729408 130.0809408  69.9790000
  99.3089408 130.3209408  70.8750000  98.1399408 129.8699408  70.0250000
  98.6629408 143.0849408  65.7270000  99.1639408 142.7029408  66.4480000
  99.3049408 143.2099408  65.0280000 102.1909408 123.0269408  66.6490000
 102.5829408 123.5069408  67.3790000 102.8259408 122.3399408  66.4440000
  92.7639408 130.3209408  75.9390000  92.1979408 130.7929408  75.3280000
  92.1579408 129.8679408  76.5260000  93.7929408 125.9289408  78.5460000
  94.5359408 125.3939408  78.2680000  93.0419408 125.5539408  78.0850000
  97.2649408 125.4869408  70.7700000  96.6499408 126.0649408  70.3180000
  97.6409408 124.9459408  70.0760000  94.4899408 124.3149408  68.6110000
  93.8189408 123.6769408  68.8510000  94.7519408 124.0669408  67.7250000
 108.2059408 131.1969408  71.0920000 108.7899408 131.1579408  70.3350000
 107.3289408 131.0939408  70.7250000 102.6159408 122.7419408  62.6460000
 102.2479408 123.1119408  61.8440000 103.2749408 123.3789408  62.9240000
  93.9959408 130.0319408  79.2360000  94.7059408 129.4889408  78.8920000
  94.1359408 130.8909408  78.8370000 103.6049408 129.6929408  63.1680000
 104.0819408 128.9459408  63.5280000 104.2209408 130.4239408  63.2310000
 100.6809408 131.2849408  60.4750000 100.9629408 131.9649408  59.8630000
 100.5939408 131.7389408  61.3140000  96.1979408 148.7859408  67.3920000
  95.6229408 149.3219408  67.9370000  96.9389408 149.3569408  67.1890000
 105.6389408 126.6119408  68.9870000 105.6199408 126.6119408  69.9440000
 106.5409408 126.8459408  68.7660000 106.1629408 140.3279408  69.8410000
 105.8969408 140.1039408  68.9500000 105.7949408 139.6309408  70.3840000
 108.8369408 139.6889408  73.6890000 109.6529408 139.8079408  74.1740000
 109.0429408 139.9709408  72.7980000  97.3569408 134.9479408  74.1060000
  96.7409408 134.6609408  74.7800000  97.7119408 134.1349408  73.7450000
 112.1589408 131.9809408  68.6940000 112.2029408 132.9319408  68.6020000
 112.8179408 131.6489408  68.0840000  91.5759408 121.8369408  72.3790000
  91.6699408 121.3979408  71.5340000  91.7809408 122.7539408  72.1980000
  99.7979408 133.5629408  80.7020000  99.9119408 132.6129408  80.6900000
 100.2249408 133.8659408  79.9000000 102.6309408 133.1459408  74.3340000
 102.2629408 133.3379408  73.4710000 102.9819408 132.2589408  74.2530000
 100.1429408 128.5439408  62.9460000 100.7999408 128.6049408  62.2530000
 100.5939408 128.8529408  63.7320000  94.7069408 135.4199408  83.1280000
  94.5639408 135.8999408  82.3120000  94.9709408 136.0909408  83.7570000
  92.9149408 136.4549408  74.3630000  93.5279408 137.1049408  74.7050000
  92.2449408 136.3749408  75.0420000  99.9729408 121.6209408  69.1660000
 100.8859408 121.7839408  68.9290000 100.0159408 121.2549408  70.0490000
 102.5159408 129.3919408  67.0440000 102.9239408 128.9559408  66.2950000
 102.6179408 128.7729408  67.7670000 110.6819408 134.5549408  70.8580000
 110.4699408 134.9719408  71.6930000 109.8309408 134.3559408  70.4670000
  95.0659408 132.1979408  78.1450000  95.8319408 131.7159408  77.8330000
  94.6889408 132.5859408  77.3550000  94.4699408 126.9909408  81.0950000
  94.3759408 126.7169408  80.1820000  94.4599408 127.9469408  81.0610000
 106.7989408 128.8369408  81.9130000 106.1259408 128.2629408  81.5470000
 107.3839408 128.2479408  82.3890000 107.3339408 121.3149408  77.3720000
 107.1459408 122.1649408  77.7700000 106.5919408 120.7639408  77.6200000
  94.3569408 144.6489408  73.1330000  95.1819408 145.0809408  72.9100000
  93.8739408 145.2999408  73.6410000  96.0859408 134.8579408  71.4430000
  95.4669408 135.3769408  70.9300000  95.9959408 135.1919408  72.3360000
 103.4409408 136.1729408  68.5040000 103.3789408 135.9409408  67.5780000
 102.7799408 136.8539408  68.6260000  98.5019408 124.1379408  68.6120000
  98.8629408 124.4539408  67.7840000  98.9809408 123.3279408  68.7890000
  99.2219408 149.9579408  79.5540000  99.1209408 149.3189408  78.8490000
  99.7729408 150.6449408  79.1780000  95.8979408 146.1729408  75.7840000
  94.9769408 146.4009408  75.6590000  96.2559408 146.1269408  74.8980000
  94.1719408 128.0399408  66.5580000  93.5999408 128.3309408  67.2680000
  94.3229408 128.8259408  66.0330000 110.9309408 128.1219408  77.8530000
 110.4899408 128.4399408  78.6410000 111.2959408 128.9089408  77.4480000
  93.5469408 149.1949408  74.3880000  93.4529408 148.7309408  73.5560000
  94.0779408 149.9629408  74.1760000  97.6459408 135.5889408  60.5610000
  98.1379408 134.9059408  61.0160000  98.1499408 136.3889408  60.7110000
  99.7719408 122.8839408  65.6410000 100.6209408 122.7349408  66.0590000
  99.7999408 122.3549408  64.8440000  99.0259408 136.3989408  75.6100000
  98.7289408 136.0099408  76.4320000  98.4029408 136.0809408  74.9560000
 114.9449408 130.7089408  82.4340000 114.4059408 130.1399408  82.9830000
 114.3479408 131.3989408  82.1430000 102.9919408 126.0789408  80.9050000
 103.2669408 126.9929408  80.8340000 103.4549408 125.7489408  81.6750000
 109.7759408 137.0209408  66.7930000 109.6259408 137.7959408  66.2530000
 109.1299408 137.0889408  67.4960000 114.9269408 135.3199408  69.5870000
 115.3159408 134.5869408  70.0650000 115.3279408 135.2809408  68.7190000
  95.7419408 131.5499408  72.2860000  95.5099408 131.7689408  73.1890000
  96.5849408 131.9799408  72.1450000 119.0709408 122.3679408  73.5800000
 119.1899408 122.7229408  74.4610000 119.9599408 122.2269408  73.2550000
 105.3469408 127.8619408  73.5700000 105.5059408 127.1419408  72.9600000
 106.2199408 128.1279408  73.8590000 103.9419408 147.7469408  71.2050000
 103.6119408 147.6369408  72.0970000 103.2129408 148.1429408  70.7270000
  92.4759408 133.4329408  71.5170000  92.9669408 133.3179408  72.3310000
  92.3929408 134.3819408  71.4200000  94.0809408 130.9719408  70.1910000
  93.3579408 131.5829408  70.3280000  94.6869408 131.1519408  70.9110000
  92.4699408 122.2689408  69.4860000  91.9209408 123.0069408  69.2190000
  91.8819408 121.5139408  69.4670000  93.0199408 136.0899408  71.5960000
  92.9749408 136.1599408  72.5500000  93.1089408 136.9939408  71.2930000
 102.5739408 134.1909408  76.7410000 102.6879408 133.7449408  75.9010000
 103.3929408 134.6689408  76.8720000  99.4949408 135.9309408  63.8740000
  99.7659408 135.7989408  64.7830000  99.9059408 136.7569408  63.6190000
  98.0449408 138.2839408  77.2700000  97.8129408 137.5769408  77.8720000
  98.2419408 137.8409408  76.4450000  98.0199408 121.0509408  74.0630000
  98.1869408 121.8039408  73.4960000  98.5849408 121.1939408  74.8240000
 102.3299408 143.4389408  64.0320000 101.5709408 142.9229408  63.7610000
 103.0749408 143.0059408  63.6160000  93.8559408 148.2669408  66.1100000
  93.5329408 149.1219408  65.8250000  94.7399408 148.4389408  66.4320000
  92.1229408 142.1309408  77.8600000  92.8419408 141.8089408  77.3180000
  92.3069408 143.0629408  77.9750000 108.9909408 128.3469408  65.9690000
 109.9089408 128.3779408  66.2400000 108.8449408 127.4349408  65.7200000
  95.8029408 136.0779408  64.3120000  96.5949408 135.6419408  63.9980000
  95.6179408 135.6609408  65.1540000 105.6349408 131.6509408  63.7230000
 106.4549408 131.1739408  63.8460000 105.4639408 132.0589408  64.5730000
 103.6209408 135.0579408  71.2560000 102.8359408 135.3699408  71.7060000
 103.5009408 135.3309408  70.3470000  96.7349408 130.4089408  76.9120000
  97.6709408 130.2119408  76.8740000  96.3309408 129.5979408  77.2210000
  99.1019408 139.7299408  82.1000000  99.8669408 139.3959408  81.6300000
  99.3469408 140.6199408  82.3550000  98.8879408 140.4159408  61.5990000
  98.2829408 139.7779408  61.9770000  98.7719408 141.2019408  62.1330000
 103.4439408 120.5639408  65.1250000 104.2609408 120.5429408  65.6220000
 103.7179408 120.5099408  64.2090000  98.1309408 137.3219408  69.6840000
  98.1119408 138.2399408  69.4110000  97.9969408 137.3509408  70.6310000
 101.8609408 128.8709408  60.8180000 101.4729408 129.7019408  60.5460000
 102.8049408 129.0259408  60.7920000 104.0549408 140.7059408  79.8650000
 103.1819408 140.5199408  80.2090000 104.1139408 140.1809408  79.0660000
  98.7819408 134.8269408  70.5120000  97.8989408 134.6719408  70.8490000
  98.7299408 135.6859408  70.0920000 115.7759408 135.5769408  75.5950000
 116.5949408 135.4519408  75.1160000 115.8309408 134.9639408  76.3280000
 104.7319408 125.0299408  66.7360000 105.2879408 124.2539408  66.6670000
 105.2679408 125.6689408  67.2060000 104.8019408 135.4929408  76.8610000
 104.9129408 136.3009408  76.3600000 105.6729408 135.3059408  77.2110000
 117.4529408 132.4809408  72.6510000 116.9679408 131.6609408  72.7380000
 118.3159408 132.2169408  72.3320000 109.8039408 130.9529408  68.8190000
 110.7069408 131.2619408  68.7410000 109.2889408 131.5889408  68.3220000
 103.6759408 132.0399408  68.3110000 102.9579408 132.4469408  68.7970000
 103.3909408 131.1369408  68.1740000  94.4319408 119.9699408  69.1520000
  94.9539408 120.3289408  69.8690000  93.7079408 120.5879408  69.0490000
  93.1979408 135.2869408  67.9950000  92.5999408 135.4139408  67.2590000
  92.7259408 134.7069408  68.5910000 103.4919408 130.2479408  75.4210000
 104.1179408 130.9619408  75.5410000 104.0109408 129.5349408  75.0460000
 118.8019408 126.7519408  75.1170000 118.5949408 126.3399408  74.2790000
 117.9779408 127.1509408  75.3980000  96.3509408 132.5299408  80.8020000
  95.7639408 132.6359408  80.0530000  96.8079408 133.3679408  80.8690000
  92.1939408 122.4329408  75.0200000  91.9859408 122.0149408  74.1840000
  92.7589408 123.1699408  74.7850000 110.3539408 121.1919408  74.3940000
 111.2449408 121.0649408  74.0680000 110.3279408 122.1089408  74.6690000
 102.9529408 138.1909408  64.7110000 102.8259408 138.4779408  65.6150000
 103.8859408 138.3269408  64.5450000 101.2079408 133.2309408  69.6310000
 101.4929408 133.1859408  70.5430000 100.4689408 133.8389408  69.6400000
  95.2889408 136.5969408  61.2440000  96.1979408 136.4009408  61.4730000
  95.0949408 136.0109408  60.5130000  95.9609408 121.2959408  70.8390000
  96.7089408 121.8909408  70.8830000  95.2019408 121.8499408  71.0230000
 104.0369408 129.3019408  70.0320000 103.0859408 129.2279408  69.9500000
 104.3769408 128.5189408  69.5980000 103.8409408 135.9929408  79.9150000
 103.3829408 135.6059408  79.1690000 104.1529408 136.8389408  79.5910000
 107.9259408 133.8949408  74.1400000 106.9729408 133.9149408  74.2200000
 108.2449408 134.1439408  75.0080000 107.9639408 124.7779408  60.3340000
 107.0519408 125.0459408  60.4500000 108.1979408 124.3589408  61.1630000
  96.0819408 131.7559408  63.1260000  95.2619408 132.2489408  63.0890000
  96.7199408 132.3779408  63.4750000 110.7849408 131.9599408  77.6010000
 111.3309408 131.2469408  77.2700000 110.9109408 132.6709408  76.9720000
 106.0959408 130.7469408  69.5820000 105.3069408 130.3579408  69.9590000
 106.3329408 130.1619408  68.8630000 101.8799408 131.9409408  63.1400000
 101.5959408 131.9629408  64.0530000 102.2839408 131.0799408  63.0340000
 100.6029408 138.1769408  72.3180000  99.6709408 138.0139408  72.4610000
 100.6839408 139.1309408  72.3230000 106.8019408 140.5669408  75.9690000
 107.5409408 139.9729408  75.8380000 106.7199408 141.0359408  75.1380000
  96.3819408 123.8779408  66.2780000  96.8239408 124.1609408  67.0780000
  96.7769408 124.4079408  65.5850000 107.8219408 130.6709408  84.7140000
 107.0509408 130.2079408  84.3860000 108.5589408 130.2549408  84.2680000
 110.9929408 136.8169408  61.4860000 111.3499408 137.6909408  61.3270000
 110.4049408 136.9299408  62.2320000 117.1529408 133.0869408  76.5300000
 117.5009408 132.5009408  77.2020000 116.4709408 132.5749408  76.0950000
 118.4819408 130.9349408  69.6410000 118.8959408 131.1749408  70.4700000
 118.9019408 131.4979408  68.9910000 104.8989408 146.5689408  68.8670000
 104.8359408 146.8249408  69.7880000 104.8469408 145.6129408  68.8800000
  96.4319408 129.2409408  69.6680000  95.6539408 129.7959408  69.6110000
  96.1929408 128.4429408  69.1960000 107.9739408 130.1959408  64.3400000
 108.5639408 130.9399408  64.4650000 108.2259408 129.5729408  65.0210000
 104.5639408 131.3319408  72.5050000 105.3129408 131.9219408  72.4160000
 104.8419408 130.5249408  72.0710000  95.8949408 139.3489408  70.4970000
  95.2319408 139.5939408  71.1420000  95.4229408 138.8129408  69.8600000
 100.5329408 124.8369408  71.0850000 100.4469408 125.5079408  70.4070000
 101.3799408 125.0149408  71.4930000  98.3729408 143.4639408  73.1860000
  99.1639408 143.9339408  72.9220000  97.6539408 143.9979408  72.8490000
  98.0019408 133.8009408  64.2870000  98.6839408 134.4149408  64.0160000
  97.9259408 133.9279408  65.2330000  98.5919408 140.0079408  71.6570000
  97.6919408 139.6829408  71.6220000  98.5009408 140.9549408  71.7650000
  98.5059408 149.5499408  64.7200000  99.2599408 149.8159408  64.1930000
  98.6619408 149.9459408  65.5770000  94.0379408 147.2559408  69.9530000
  94.9729408 147.0479408  69.9550000  93.9999408 148.1869408  69.7350000
 107.8569408 125.7969408  66.3200000 108.7739408 125.6119408  66.1180000
 107.3679408 125.4069408  65.5960000 114.8209408 127.4299408  68.6100000
 114.9309408 126.7309408  67.9650000 115.4989408 128.0679408  68.3900000
  99.6499408 131.8419408  67.8760000 100.4039408 132.2779408  68.2730000
  99.2779408 131.3139408  68.5820000 107.8409408 131.3329408  81.0730000
 107.5779408 130.4969408  81.4570000 107.0239408 131.8229408  80.9800000
 106.4069408 123.6289408  79.0480000 107.1099408 124.2789408  79.0450000
 106.1969408 123.5069408  79.9740000 101.6449408 128.1269408  83.6070000
 101.9199408 127.4939408  84.2710000 101.9309408 128.9729408  83.9510000
 108.3389408 128.6359408  77.0160000 108.1949408 129.4509408  77.4970000
 109.2549408 128.4159408  77.1850000  97.8239408 129.7049408  61.9020000
  98.6989408 129.3949408  62.1340000  97.3699408 129.7939408  62.7400000
 103.4879408 128.3599408  77.7820000 102.5719408 128.4729408  78.0380000
 103.7179408 129.1799408  77.3450000 117.1329408 133.4899408  66.5760000
 116.2129408 133.7239408  66.4540000 117.5309408 134.2739408  66.9540000
  95.3919408 129.8369408  81.5440000  94.4879408 130.0839408  81.7380000
  95.8819408 130.6569408  81.5990000 105.6989408 133.6459408  81.5090000
 104.9289408 134.2119408  81.4530000 105.7449408 133.3939408  82.4310000
  95.3759408 125.8509408  64.5400000  95.9379408 126.5929408  64.3170000
  95.1269408 126.0039408  65.4520000 111.4999408 140.8909408  81.6630000
 111.5299408 141.8449408  81.5890000 111.2169408 140.5929408  80.7990000
 106.1989408 132.7839408  84.3270000 106.9519408 132.3809408  84.7590000
 105.5079408 132.1229408  84.3830000 110.3079408 132.6819408  81.5200000
 109.5659408 132.7069408  82.1230000 110.0339408 133.2229408  80.7790000
 113.5869408 131.2759408  63.3410000 112.6949408 131.6219408  63.3230000
 114.1119408 131.9439408  62.9000000  97.8799408 146.0279408  83.7110000
  98.5289408 146.2299408  83.0370000  97.0729408 145.8609408  83.2240000
 108.4169408 134.7709408  80.7260000 108.8399408 135.1919408  81.4750000
 107.5249408 134.5919408  81.0240000 104.9759408 135.1649408  83.9550000
 105.6309408 135.7189408  83.5300000 105.4869408 134.4979408  84.4130000
 110.1269408 137.4139408  77.2570000 110.8569408 138.0169408  77.1180000
 110.2649408 137.0689408  78.1390000 107.7229408 129.0149408  74.5310000
 108.2079408 129.8399408  74.5330000 107.7629408 128.7109408  75.4380000
 107.0589408 124.2909408  63.6940000 107.3229408 123.4279408  64.0130000
 106.3329408 124.1129408  63.0950000 102.1429408 133.0499408  83.4810000
 102.7959408 133.1569408  82.7890000 101.8279408 133.9369408  83.6530000
  99.2999408 124.7489408  76.6790000  98.4779408 124.7659408  76.1890000
  99.0309408 124.7099408  77.5970000 100.2849408 129.8869408  72.5980000
 100.8409408 129.1149408  72.4900000 100.1829408 129.9779408  73.5460000
 118.8309408 127.2719408  62.2880000 118.8699408 126.9779408  63.1980000
 119.5399408 126.7969408  61.8530000 107.8369408 125.8009408  78.3520000
 108.7399408 125.6199408  78.0890000 107.7859408 126.7559408  78.3950000
 102.3099408 137.8379408  78.4750000 101.5999408 137.7869408  77.8350000
 102.9599408 138.4099408  78.0670000 111.5769408 130.0929408  73.5580000
 110.8019408 130.5149408  73.9290000 111.6999408 130.5189408  72.7100000
  95.6739408 143.6199408  60.0820000  96.0949408 143.8689408  60.9050000
  96.3839408 143.2649408  59.5480000  93.0279408 138.2679408  61.4330000
  93.1569408 139.2159408  61.4620000  93.8729408 137.9189408  61.1520000
  95.6639408 128.1749408  78.2520000  96.2629408 127.8789408  78.9380000
  95.1889408 127.3859408  77.9920000  95.9109408 126.2639408  83.1760000
  95.8639408 125.3079408  83.1610000  95.2579408 126.5469408  82.5370000
  93.5549408 132.7819408  63.2750000  92.7219408 132.4139408  63.5720000
  93.4619408 133.7249408  63.4110000 110.1159408 123.8369408  75.0270000
 110.6079408 124.5009408  74.5440000 109.2639408 123.8059408  74.5920000
  99.1499408 149.6889408  82.5040000  99.9349408 150.2339408  82.5540000
  99.1679408 149.3219408  81.6200000  99.0229408 130.0999408  83.4030000
  98.3649408 130.6929408  83.7660000  98.5369408 129.3039408  83.1870000
  92.6359408 129.1879408  72.6550000  92.1249408 129.8089408  73.1730000
  91.9839408 128.6069408  72.2650000 100.1199408 121.7629408  63.4120000
  99.5699408 121.8339408  62.6310000 100.9739408 122.0939408  63.1340000
 114.7679408 126.0699408  77.1460000 113.8289408 126.0299408  76.9640000
 115.1819408 125.7409408  76.3480000  95.1569408 131.4689408  75.1180000
  94.3929408 131.0489408  75.5120000  95.9069408 131.0229408  75.5130000
 106.3049408 137.8459408  78.6500000 106.4699408 138.5339408  78.0040000
 106.6669408 137.0539408  78.2540000 101.4229408 121.4139408  82.3640000
 101.7979408 121.2949408  83.2370000 102.1729408 121.6199408  81.8060000
  94.3739408 122.0349408  82.5920000  95.0449408 122.5869408  82.9950000
  93.7539408 122.6539408  82.2080000  97.8019408 136.5439408  67.0640000
  97.6149408 135.6139408  67.1890000  97.8329408 136.9049408  67.9500000
 102.7309408 132.2139408  78.9580000 102.2289408 131.4239408  78.7610000
 102.6519408 132.7509408  78.1690000  97.4109408 128.2469408  82.5390000
  97.0039408 127.3889408  82.6570000  96.8979408 128.6629408  81.8460000
 108.8269408 123.5309408  82.3500000 108.8589408 122.6169408  82.6340000
 109.3369408 123.5479408  81.5400000 103.0339408 134.4019408  63.2410000
 103.4299408 134.6769408  62.4150000 102.6019408 133.5729408  63.0360000
 104.6579408 121.6439408  84.3280000 105.2989408 121.5509408  85.0330000
 103.8909408 122.0299408  84.7510000  99.2199408 130.8319408  80.8010000
  98.2959408 130.9889408  80.6070000  99.2279408 130.5439408  81.7140000
  98.1889408 137.1529408  83.5900000  99.0689408 137.0679408  83.9560000
  97.9749408 138.0809408  83.6910000  97.2109408 128.0059408  65.3860000
  96.6419408 128.7579408  65.5510000  97.9689408 128.1489408  65.9520000
 120.1159408 128.1649408  71.4220000 120.1929408 127.2509408  71.1470000
 119.2939408 128.4639408  71.0340000 111.0649408 129.6399408  62.0140000
 111.5329408 129.0169408  62.5690000 111.5449408 129.6309408  61.1850000
  94.8949408 138.8529408  66.4910000  95.2919408 139.6979408  66.7040000
  95.4089408 138.5259408  65.7530000  90.8779408 149.1329408  61.2170000
  91.1779408 149.6449408  60.4660000  91.0379408 148.2229408  60.9670000
  96.9089408 124.5699408  75.4710000  96.4269408 125.1219408  74.8560000
  96.2819408 124.3849408  76.1700000 106.1519408 136.8349408  66.9130000
 105.4469408 136.5409408  66.3350000 105.7099408 137.0769408  67.7270000
 105.4429408 120.1609408  73.2290000 106.1079408 119.5109408  73.4580000
 105.5879408 120.8799408  73.8430000 114.0269408 139.3799408  81.4100000
 114.2849408 138.4959408  81.6720000 113.1719408 139.5119408  81.8210000
 104.3959408 138.1949408  70.7400000 104.3709408 138.1429408  71.6950000
 104.2869408 137.2889408  70.4480000  94.5679408 132.7609408  83.3450000
  94.5269408 133.7069408  83.4870000  94.8839408 132.6679408  82.4460000
 111.5419408 122.2789408  84.3060000 111.1949408 122.1159408  83.4290000
 111.4429408 121.4439408  84.7630000 104.6329408 143.1429408  70.1660000
 104.8209408 143.6079408  69.3500000 104.7559408 142.2189408  69.9490000
 105.3159408 132.0549408  76.3340000 104.9349408 132.8129408  76.7780000
 106.1729408 131.9419408  76.7450000 112.2929408 137.8109408  83.8080000
 112.1829408 137.0259408  84.3450000 112.7159408 138.4419408  84.3890000
  99.7159408 137.2639408  60.6440000 100.4809408 136.8889408  60.2080000
 100.0779408 137.7609408  61.3780000  97.2109408 131.8149408  84.3940000
  96.3699408 132.1359408  84.0660000  97.5599408 132.5409408  84.9100000
  90.1669408 128.8079408  80.3710000  89.8829408 128.0049408  80.8070000
  89.9809408 129.5029408  81.0020000 101.3649408 129.9299408  78.7550000
 100.7509408 129.2719408  78.4300000 101.2129408 129.9549408  79.7000000
 104.3869408 140.9349408  61.0510000 103.5169408 141.2199408  60.7720000
 104.8489408 140.7409408  60.2360000 100.7769408 129.9669408  75.3550000
 101.7099408 130.1599408  75.2610000 100.7469408 129.1889408  75.9110000
 109.8279408 135.7489408  73.0870000 110.5869408 135.7009408  73.6680000
 109.2939408 134.9909408  73.3260000 118.4329408 121.3169408  77.7720000
 118.3759408 120.3929408  78.0160000 118.3789408 121.7879408  78.6040000
 106.9629408 136.6139408  82.6300000 106.8069408 137.5369408  82.8310000
 107.8629408 136.5879408  82.3060000 116.9299408 131.9079408  61.8610000
 116.9209408 132.4829408  62.6270000 117.6339408 131.2839408  62.0360000
 105.8339408 123.3109408  61.4930000 106.3929408 122.5349408  61.4550000
 105.4889408 123.4019408  60.6050000  90.8749408 123.4179408  83.9600000
  90.5559408 122.5409408  83.7490000  91.6379408 123.5389408  83.3940000
 103.8929408 139.7199408  77.2500000 103.8199408 140.5249408  76.7370000
 104.7049408 139.3139408  76.9450000 100.5189408 127.1779408  75.9270000
 100.5439408 126.3239408  76.3590000 100.1409408 126.9999408  75.0660000
 105.9109408 147.6449408  80.9300000 105.4609408 146.9469408  80.4540000
 105.2979408 147.8989408  81.6190000  97.9469408 127.0969408  79.7360000
  97.9239408 126.1409408  79.7090000  98.7869408 127.3059408  80.1460000
 106.8989408 149.9439408  65.6780000 106.7499408 149.2089408  66.2740000
 106.6159408 149.6199408  64.8230000  99.8299408 147.2289408  65.4010000
  98.9329408 147.4469408  65.1470000 100.3679408 147.5429408  64.6740000
  91.1219408 126.0539408  69.6410000  90.6489408 126.3209408  68.8530000
  91.9209408 126.5809408  69.6320000 101.1519408 142.9069408  80.7830000
 101.1849408 141.9589408  80.9060000 100.5209408 143.0349408  80.0740000
 101.0869408 145.7069408  67.3250000 100.8939408 146.1889408  68.1280000
 100.7599408 146.2699408  66.6230000  92.6749408 138.7829408  70.9760000
  93.1839408 139.3299408  71.5740000  93.0549408 138.9529408  70.1140000
 103.9669408 135.5319408  65.7910000 104.1179408 134.5939408  65.6770000
 103.3829408 135.7699408  65.0710000  92.1679408 124.6769408  72.0900000
  91.6919408 125.0179408  71.3330000  91.8439408 125.1909408  72.8290000
  99.7219408 148.0699408  68.6160000  99.4219408 148.0619408  67.7080000
  99.1469408 148.6979408  69.0530000 101.7279408 140.3879408  81.2710000
 101.6209408 139.5149408  80.8940000 102.3419408 140.2629408  81.9960000
 118.0529408 145.8899408  72.2050000 118.2489408 146.7309408  72.6180000
 117.0989408 145.8779408  72.1250000 103.8599408 126.7389408  62.4700000
 103.0679408 127.2019408  62.1940000 103.5509408 126.0939408  63.1060000
  94.9999408 149.5199408  78.2440000  95.1339408 149.6689408  79.1800000
  94.6149408 150.3359408  77.9240000 100.5059408 139.8669408  66.1100000
  99.8559408 139.5139408  65.5030000  99.9949408 140.3779408  66.7380000
 103.0909408 125.1259408  64.6640000 103.6829408 125.1169408  65.4160000
 102.3979408 124.5079408  64.8970000  93.3269408 144.6049408  79.3680000
  94.2059408 144.2289408  79.3230000  93.4169408 145.4729408  78.9750000
  90.0379408 141.4779408  64.6990000  90.9309408 141.1549408  64.5830000
  89.4899408 140.8369408  64.2450000 105.7609408 145.8819408  64.7460000
 105.6409408 145.0999408  64.2060000 104.9199408 145.9989408  65.1890000
 104.2179408 140.3289408  73.1910000 104.4609408 141.2159408  72.9250000
 105.0449408 139.9189408  73.4450000 107.6079408 141.4719408  81.4500000
 107.1129408 142.1989408  81.8280000 107.2049408 140.6879408  81.8230000
 102.8429408 144.9729408  81.9030000 102.4879408 144.2539408  81.3800000
 103.3269408 145.5089408  81.2750000  94.6779408 142.4899408  76.5850000
  95.2769408 143.2359408  76.6160000  95.2109408 141.7439408  76.8610000
  95.7979408 141.3969408  66.7650000  96.4539408 141.7799408  67.3470000
  94.9819408 141.4349408  67.2640000 107.4849408 147.6719408  67.7400000
 106.6389408 147.2889408  67.9700000 107.8719408 147.0489408  67.1250000
  92.3099408 138.7869408  65.5240000  91.6629408 138.6259408  66.2120000
  93.1549408 138.6519408  65.9530000 104.3059408 148.7819408  67.3720000
 104.7559408 148.1469408  67.9280000 103.9669408 148.2639408  66.6420000
 114.3189408 144.7159408  74.1060000 114.8969408 143.9829408  73.8980000
 114.5489408 145.3919408  73.4680000  96.4959408 138.9039408  62.3800000
  95.9039408 139.5189408  61.9470000  95.9969408 138.0889408  62.4350000
 106.4369408 139.0669408  81.2430000 106.5039408 138.3559408  80.6060000
 105.6939408 139.5899408  80.9420000  97.2649408 143.0889408  63.3920000
  97.5729408 143.8519408  62.9040000  97.6459408 143.1919408  64.2640000
 100.3759408 143.4779408  77.1180000  99.6279408 143.2069408  77.6500000
 100.5139408 142.7509408  76.5100000 105.4449408 145.1009408  74.0140000
 106.2459408 145.2109408  73.5020000 105.0809408 144.2679408  73.7140000
  99.1669408 125.4379408  65.7480000  98.8509408 125.6709408  64.8750000
  99.4189408 124.5179408  65.6750000  94.2729408 140.1469408  72.5690000
  93.8439408 140.9559408  72.8460000  95.0339408 140.0699408  73.1450000
  93.2469408 135.4839408  63.2100000  93.6359408 136.1419408  62.6340000
  93.7999408 135.4919408  63.9910000  94.1789408 137.7809408  68.9290000
  94.2309408 138.1619408  68.0530000  93.5919408 137.0319408  68.8310000
 101.1639408 149.3629408  74.0990000 101.9599408 149.0219408  74.5070000
 100.8289408 150.0059408  74.7250000 101.2709408 149.4239408  60.7540000
 101.1439408 149.1009408  59.8620000 100.7259408 150.2099408  60.8040000
 100.1639408 134.3359408  77.9330000  99.7059408 133.4989408  77.8530000
 100.9369408 134.2409408  77.3770000  96.7049408 144.8669408  67.0240000
  97.3139408 144.3839408  66.4660000  96.0519408 145.2189408  66.4190000
  90.7809408 137.7779408  63.0700000  91.3749408 137.8329408  63.8190000
  91.3059408 138.0689408  62.3250000  96.9129408 146.0559408  73.0170000
  96.7609408 146.9919408  73.1450000  97.8609408 145.9539408  73.1010000
  99.9689408 145.5049408  71.5150000 100.0609408 146.2039408  72.1630000
  99.5309408 145.9229408  70.7730000 102.8559408 122.0519408  69.6080000
 103.6339408 121.5559408  69.8640000 102.6389408 122.5739408  70.3800000
 100.9059408 142.2719408  61.9450000 100.8709408 141.3879408  61.5790000
 100.4339408 142.8129408  61.3120000  90.6149408 134.7429408  62.4330000
  89.9859408 135.4539408  62.5520000  91.4659408 135.1429408  62.6100000
 105.8529408 143.8829408  67.9390000 105.9139408 143.7729408  66.9900000
 106.7569408 144.0099408  68.2250000  97.6779408 135.6369408  78.2270000
  97.3809408 135.6059408  79.1360000  98.4549408 135.0779408  78.2080000
  94.3649408 142.5619408  70.9050000  93.8259408 143.0119408  71.5560000
  95.0559408 143.1889408  70.6910000 101.6299408 143.2589408  71.2250000
 101.9139408 143.2529408  70.3110000 100.9499408 143.9319408  71.2610000
 110.0859408 123.0319408  61.4180000 110.4329408 122.3479408  60.8450000
 109.2249408 122.7079408  61.6830000 118.1769408 122.4219408  80.1510000
 117.3749408 122.2089408  80.6290000 118.4289408 123.2859408  80.4760000
 109.2209408 148.9019408  69.3070000 108.6819408 149.2899408  69.9960000
 108.5979408 148.6619408  68.6210000  90.7819408 136.6869408  75.9170000
  90.1779408 136.2529408  76.5200000  90.3069408 137.4619408  75.6180000
  96.7389408 144.1779408  69.9850000  96.8389408 145.0859408  70.2700000
  96.8689408 144.2079408  69.0370000 100.4329408 121.4439408  75.7220000
 100.5989408 121.4719408  76.6650000 100.7079408 122.3039408  75.4050000
  93.3309408 139.3729408  78.2010000  92.4419408 139.5659408  78.5000000
  93.8949408 139.6769408  78.9110000 116.3379408 128.5209408  74.7070000
 115.9319408 129.3879408  74.7270000 115.5999408 127.9109408  74.7000000
  93.1059408 141.9459408  68.1800000  93.4189408 142.7029408  68.6760000
  92.1519408 142.0229408  68.2010000 105.4369408 143.2539408  80.0090000
 106.0059408 143.1119408  79.2530000 105.0009408 142.4129408  80.1430000
  97.0619408 141.4499408  69.2770000  97.2629408 142.2119408  69.8210000
  96.5489408 140.8769408  69.8470000 102.0659408 148.8869408  69.7040000
 101.2279408 148.5389408  69.3980000 102.5209408 149.1529408  68.9050000
 101.2699408 146.0949408  76.5260000 101.8939408 146.0249408  75.8040000
 101.2699408 145.2259408  76.9290000 100.8659408 138.4719408  62.7640000
 100.6719408 139.4039408  62.8690000 101.5619408 138.2989408  63.3990000
 103.6439408 120.4429408  61.8470000 102.8629408 120.2199408  61.3410000
 103.6489408 121.3999408  61.8730000  93.1739408 120.5829408  64.5740000
  94.1289408 120.6499408  64.5680000  92.8779408 121.4079408  64.9580000
  99.4209408 141.4549408  67.9740000  98.8169408 141.4819408  68.7160000
 100.2109408 141.8929408  68.2920000 118.8549408 143.9129408  70.4620000
 118.1329408 143.2899408  70.3720000 118.5459408 144.5469408  71.1090000
  99.8059408 135.8759408  81.7940000  98.8959408 136.1509408  81.9020000
  99.7489408 134.9669408  81.5000000  97.9939408 141.3219408  74.6600000
  98.8919408 141.3319408  74.9910000  97.9779408 142.0019408  73.9870000
 115.4639408 145.1709408  68.5830000 114.5769408 145.4189408  68.3240000
 115.9009408 144.9499408  67.7600000 114.4759408 140.8279408  79.0240000
 115.3199408 141.0919408  78.6570000 114.7019408 140.2359408  79.7420000
 102.9509408 121.3049408  72.5350000 103.5739408 120.6049408  72.7320000
 102.1069408 120.9639408  72.8300000 119.8429408 146.8959408  68.9490000
 119.2369408 146.1979408  68.6960000 120.4319408 146.4839408  69.5810000
 103.2739408 146.0209408  65.5640000 103.0779408 145.8549408  66.4860000
 102.5129408 145.6839408  65.0920000 103.9679408 143.1959408  72.7510000
 103.0609408 143.1179408  72.4530000 104.4749408 143.3119408  71.9480000
  97.9659408 143.2009408  84.6000000  98.6309408 142.7009408  84.1270000
  97.9549408 144.0549408  84.1660000 118.8189408 148.9629408  79.5480000
 119.3499408 148.7979408  80.3270000 117.9169408 148.8389408  79.8420000
  97.1999408 122.1849408  79.7970000  97.7519408 121.4189408  79.6400000
  96.4489408 121.8439408  80.2840000 106.6659408 132.2829408  61.1970000
 106.1439408 133.0379408  60.9240000 106.2319408 131.9649408  61.9890000
 101.4439408 135.8639408  83.9440000 102.0879408 136.3889408  83.4680000
 100.7859408 135.6379408  83.2870000 104.5009408 132.8519408  65.8720000
 104.3729408 132.6739408  66.8040000 103.6179408 132.8409408  65.5020000
 100.8959408 139.7499408  69.9370000 100.1039408 139.8069408  70.4710000
 101.6099408 139.9329408  70.5480000 109.0259408 134.6979408  65.6060000
 109.1789408 135.5409408  66.0320000 108.8219408 134.0999408  66.3250000
  96.7689408 148.4729408  74.2330000  97.3599408 149.2059408  74.4070000
  95.9639408 148.6979408  74.6990000 117.3529408 120.3099408  72.8330000
 117.5099408 119.6729408  73.5300000 117.9369408 121.0399408  73.0390000
 102.1129408 138.3489408  67.7370000 101.7449408 138.5769408  68.5910000
 101.5649408 138.8179408  67.1070000 114.6629408 139.5749408  72.4850000
 114.9049408 138.8659408  73.0800000 114.1909408 139.1409408  71.7740000
  91.4539408 149.7109408  75.8930000  91.4329408 150.6619408  76.0040000
  92.2849408 149.5399408  75.4500000  96.8329408 140.5419408  77.8900000
  97.4509408 139.8449408  77.6710000  96.2749408 140.1639408  78.5700000
 115.2199408 134.8659408  61.3530000 115.3179408 134.0859408  60.8060000
 114.4369408 135.3009408  61.0120000 108.8679408 147.6099408  63.3490000
 109.7269408 147.3279408  63.6620000 108.2529408 147.2769408  64.0020000
  98.3579408 124.1779408  61.8600000  98.4489408 124.8209408  62.5630000
  97.5369408 123.7239408  62.0540000 101.2019408 148.7629408  63.4690000
 101.2119408 149.5939408  63.9450000 101.6049408 148.9659408  62.6240000
  96.1329408 143.5059408  80.1000000  96.3269408 143.2889408  79.1880000
  96.9599408 143.8419408  80.4480000 100.2109408 148.4339408  71.9620000
 101.0079408 148.2959408  71.4500000 100.5229408 148.6039408  72.8510000
  91.6809408 148.4499408  67.5820000  92.3499408 147.9409408  67.1260000
  90.8959408 147.9039408  67.5440000 115.9239408 142.7609408  73.2040000
 115.7279408 142.7439408  72.2670000 116.0819408 141.8459408  73.4340000
 109.3099408 146.6769408  74.0320000 109.6109408 146.8749408  74.9190000
 109.3619408 145.7229408  73.9680000  93.3539408 144.7089408  69.0660000
  93.7559408 145.5449408  69.3010000  92.5179408 144.9489408  68.6650000
  91.4129408 146.7549408  60.3960000  92.1889408 147.0679408  59.9310000
  91.2349408 145.8959408  60.0140000 119.6089408 147.8679408  75.3230000
 120.1049408 147.1339408  74.9590000 120.2649408 148.5469408  75.4810000
 112.3659408 134.6299408  68.6880000 111.7399408 134.6659408  69.4110000
 113.1379408 135.0919408  69.0160000  91.5119408 139.0599408  73.6060000
  90.8219408 139.4449408  73.0660000  92.0049408 138.5029408  73.0030000
  93.9449408 146.8669408  78.1460000  93.7629408 146.8199408  77.2080000
  94.4529408 147.6719408  78.2510000 103.2799408 142.0519408  75.6120000
 102.3279408 141.9589408  75.6370000 103.5199408 141.8259408  74.7140000
 102.9559408 141.3659408  66.3640000 103.4859408 141.8059408  65.6990000
 102.4029408 140.7609408  65.8690000  93.4409408 126.1809408  61.9050000
  94.0029408 126.8479408  61.5100000  93.9759408 125.7989408  62.6010000
 107.0119408 143.5979408  60.0990000 107.4669408 144.3679408  60.4400000
 106.1409408 143.9179408  59.8630000 108.2589408 132.5979408  67.4360000
 107.7069408 131.9699408  66.9700000 107.6589408 133.0499408  68.0290000
  90.1369408 123.5589408  65.8370000  89.9919408 122.6449408  65.5950000
  90.0729408 123.5669408  66.7920000 116.3759408 143.1479408  82.1470000
 115.9069408 143.8409408  81.6830000 117.2419408 143.1299408  81.7400000
 102.6159408 142.0489408  84.5270000 102.7129408 141.7699408  85.4380000
 103.1399408 141.4229408  84.0270000  94.7479408 146.4299408  62.0810000
  94.8309408 145.7089408  62.7050000  93.9279408 146.8609408  62.3190000
  99.2759408 146.4629408  74.7030000  99.7309408 146.2569408  75.5190000
  99.1089408 147.4049408  74.7520000 113.3719408 149.3539408  76.9710000
 113.3079408 148.3989408  76.9860000 112.9949408 149.6059408  76.1290000
 106.2559408 143.4489408  82.4580000 105.9049408 143.5529408  81.5740000
 105.4959408 143.5559408  83.0320000  96.9949408 135.9949408  80.7340000
  96.4209408 135.7369408  81.4560000  96.9939408 136.9519408  80.7580000
 106.4109408 147.9309408  76.0400000 106.7929408 148.4529408  76.7440000
 106.9819408 148.0879408  75.2870000 104.1419408 144.1589408  84.0840000
 103.6309408 143.3779408  84.2940000 103.5819408 144.6599408  83.4910000
 103.5379408 136.9969408  82.3460000 104.1009408 136.3869408  82.8230000
 103.4289408 136.5979408  81.4830000 103.4829408 139.4799408  83.5240000
 103.6019408 138.6709408  83.0260000 104.1959408 139.4769408  84.1620000
  95.5179408 140.8639408  60.6340000  94.6129408 140.9029408  60.3240000
  95.8689408 141.7369408  60.4600000 104.6979408 145.7839408  79.6430000
 104.8279408 145.7939408  78.6940000 104.6369408 144.8559408  79.8670000
  95.6269408 145.5319408  82.0670000  96.1349408 145.9269408  81.3580000
  95.2669408 144.7309408  81.6870000 100.6369408 141.0749408  75.7480000
 101.0509408 140.3259408  76.1760000 100.8889408 140.9959408  74.8280000
 104.6019408 148.8039408  83.5100000 105.1489408 148.3629408  84.1610000
 104.6489408 149.7299408  83.7450000 107.2359408 145.8399408  84.2300000
 107.9919408 145.7569408  83.6490000 106.6439408 145.1399408  83.9550000
 106.3829408 145.0279408  76.5230000 105.9809408 144.9789408  75.6560000
 106.6939408 145.9299408  76.5930000  89.8979408 145.6919408  82.9550000
  89.7849408 144.8959408  83.4740000  90.8379408 145.7319408  82.7780000
  98.7329408 145.2859408  62.7840000  99.4529408 145.3559408  62.1580000
  98.2929408 146.1349408  62.7390000 116.7709408 123.6649408  82.7270000
 116.7729408 122.8369408  83.2070000 117.3549408 124.2339408  83.2270000
  99.9189408 123.5539408  81.8240000  99.1149408 123.4609408  82.3350000
 100.5089408 122.8899408  82.1800000  98.4839408 132.6569408  72.7750000
  98.7579408 133.2109408  72.0450000  99.2489408 132.1129408  72.9640000
  94.8689408 142.0059408  64.4930000  95.4839408 142.3369408  63.8380000
  95.3879408 141.9349408  65.2950000  91.1839408 143.8679408  62.2820000
  91.7039408 143.3719408  61.6500000  91.6219408 143.7219408  63.1200000
  91.2759408 140.9209408  82.3260000  91.5259408 140.2529408  81.6880000
  91.9619408 141.5849408  82.2600000  97.4129408 146.2019408  80.0570000
  97.4249408 146.6489408  79.2110000  98.2419408 146.4469408  80.4690000
 111.6459408 145.8579408  79.2480000 111.8839408 145.4889408  78.3980000
 111.1379408 145.1669408  79.6750000 116.5009408 143.4099408  63.8900000
 117.2679408 143.2959408  63.3290000 116.1529408 144.2679408  63.6490000
 102.1069408 148.3369408  82.1520000 102.8629408 148.3479408  82.7390000
 101.9139408 149.2609408  81.9920000  96.9049408 149.6589408  84.4020000
  97.4049408 149.1249408  85.0190000  97.5369408 149.8999408  83.7250000
 105.8789408 122.1039408  81.6990000 105.5149408 121.9559408  82.5720000
 106.7829408 121.7959408  81.7610000  98.8949408 141.6709408  79.8570000
  98.2309408 141.5909408  79.1720000  98.9859408 140.7849408  80.2080000
 109.3409408 139.3989408  80.3370000 109.0289408 139.1119408  79.4790000
 108.5439408 139.5879408  80.8320000 103.0649408 121.5539408  80.0000000
 103.9649408 121.6039408  80.3230000 102.9399408 120.6309408  79.7800000
 100.1359408 142.0139408  83.1660000 100.2959408 142.4989408  82.3560000
 100.9959408 141.9489408  83.5810000 108.4869408 128.0279408  61.6070000
 109.1999408 128.3819408  62.1380000 108.0509408 128.7999408  61.2450000
 104.4529408 140.9099408  63.7780000 104.3679408 140.7669408  62.8350000
 105.0229408 140.2019408  64.0770000  97.1399408 147.5469408  77.6840000
  96.8289408 147.2759408  76.8200000  96.5409408 148.2459408  77.9460000
 105.7979408 148.7229408  63.2530000 105.6619408 147.7969408  63.0530000
 105.1299408 149.1799408  62.7420000  99.0859408 121.1759408  61.1750000
  98.4019408 120.5059408  61.1510000  98.6729408 121.9539408  60.8020000
  98.0329408 149.1679408  70.5370000  98.6119408 148.8459408  71.2270000
  97.5109408 149.8489408  70.9610000 102.8329408 136.8609408  73.8650000
 102.4649408 135.9809408  73.9370000 102.1939408 137.3459408  73.3420000
  95.5019408 120.1759408  80.8970000  95.1519408 120.8029408  81.5300000
  95.3639408 119.3209408  81.3060000 104.6709408 127.7959408  65.3550000
 105.3629408 127.6749408  64.7050000 104.3999408 126.9069408  65.5840000
 102.2429408 126.3459408  67.8770000 103.0639408 125.9189408  67.6340000
 101.5769408 125.9019408  67.3520000 114.9609408 135.1169408  66.4150000
 114.0719408 135.3439408  66.1410000 115.4919408 135.8699408  66.1570000
 109.3769408 127.5459408  72.7920000 109.5639408 127.9789408  71.9590000
 108.9799408 128.2279408  73.3340000 119.9389408 132.9329408  80.1570000
 119.2409408 133.5489408  79.9330000 119.5489408 132.0699408  80.0180000
 113.4369408 128.0999408  74.6000000 113.0629408 128.4679408  73.7990000
 113.0709408 127.2169408  74.6520000 117.4789408 123.9939408  70.6530000
 117.3369408 124.2939408  69.7560000 117.7139408 123.0699408  70.5640000
 113.8419408 127.9109408  71.1330000 113.2649408 128.4849408  70.6300000
 114.5029408 127.6239408  70.5030000 114.1399408 121.3499408  70.9420000
 113.2239408 121.4689408  71.1920000 114.1099408 120.7419408  70.2040000
  90.0609408 126.7279408  77.5830000  90.7789408 127.3319408  77.7720000
  89.7179408 127.0209408  76.7390000 109.3879408 132.0239408  61.7080000
 108.4449408 132.1189408  61.5730000 109.5609408 131.0969408  61.5410000
 108.6229408 124.8899408  72.5080000 109.1929408 124.4829408  71.8550000
 108.9969408 125.7609408  72.6440000 118.2209408 143.3229408  74.8680000
 117.5639408 143.4529408  74.1850000 119.0359408 143.1649408  74.3900000
 117.7609408 122.7849408  63.9490000 118.2159408 122.0179408  63.6010000
 117.0409408 122.9349408  63.3370000 105.8699408 127.0169408  60.6600000
 105.2029408 126.8519408  61.3270000 106.4569408 127.6569408  61.0610000
 115.9399408 125.4359408  74.7680000 116.1589408 125.8389408  73.9280000
 115.7629408 124.5199408  74.5560000 115.4509408 126.9699408  65.4990000
 114.8859408 126.2069408  65.3780000 115.7639408 127.1789408  64.6180000
  90.4629408 142.8909408  73.2580000  90.2129408 141.9829408  73.0880000
  91.3599408 142.8359408  73.5870000 104.7979408 131.2589408  80.4950000
 104.1209408 131.7319408  80.0110000 105.3779408 131.9449408  80.8280000
 108.4659408 143.8039408  69.1880000 108.8379408 144.6159408  68.8460000
 108.9149408 143.1109408  68.7040000 106.7079408 127.0059408  63.8860000
 107.1969408 127.5149408  63.2390000 106.7849408 126.0999408  63.5860000
  95.6159408 123.9159408  77.9620000  96.1299408 123.4149408  78.5940000
  95.1099408 123.2559408  77.4870000 115.2969408 125.6169408  79.7390000
 116.1719408 125.2819408  79.5430000 114.9219408 125.8239408  78.8830000
 100.5079408 127.1349408  80.9140000 101.3479408 126.7929408  80.6060000
 100.6289408 127.2549408  81.8560000  95.4309408 128.9249408  73.3460000
  94.5449408 128.8439408  73.6980000  95.4069408 129.7229408  72.8170000
 119.5329408 120.6999408  63.3760000 120.1959408 120.7629408  62.6890000
 119.1429408 119.8339408  63.2540000 109.1209408 131.3209408  73.8360000
 108.7309408 131.3989408  72.9650000 108.7629408 132.0599408  74.3270000
 113.4509408 136.6139408  77.9200000 113.0099408 137.2459408  77.3520000
 112.8429408 136.4799408  78.6470000  91.2429408 145.3819408  71.0890000
  91.8839408 144.7989408  70.6820000  90.4409408 144.8619408  71.1370000
  90.5589408 123.4369408  62.1060000  90.9039408 123.9419408  61.3700000
  89.6199408 123.3699408  61.9320000 115.4529408 143.0009408  66.3470000
 116.1639408 142.5919408  66.8410000 115.8259408 143.1649408  65.4810000
 109.8289408 132.1619408  64.8400000 110.2879408 132.3219408  65.6640000
 109.5549408 133.0299408  64.5450000 115.5609408 131.1319408  75.4750000
 115.1189408 130.5969408  76.1340000 114.8589408 131.6419408  75.0700000
  91.6959408 134.5629408  65.6540000  91.0739408 134.5129408  64.9270000
  91.7619408 133.6639408  65.9750000 116.7429408 123.6139408  77.8620000
 116.4659408 124.0829408  77.0750000 116.0469408 122.9769408  78.0200000
 111.6259408 139.4869408  61.2030000 112.4039408 139.0829408  61.5860000
 111.3859408 140.1789408  61.8190000 119.2179408 143.7659408  65.8380000
 119.3659408 144.3189408  65.0710000 119.4309408 142.8809408  65.5410000
 111.2669408 120.7559408  68.5830000 111.3999408 121.0999408  69.4660000
 110.5919408 120.0849408  68.6870000 117.0209408 120.6149408  83.3560000
 116.1119408 120.3729408  83.1770000 117.4589408 119.7839408  83.5400000
 117.0549408 140.3509408  73.5330000 116.2059408 140.0659408  73.1960000
 117.4329408 139.5649408  73.9270000 113.3629408 125.0449408  71.8150000
 113.7649408 125.8809408  71.5770000 114.1039408 124.4649408  71.9930000
 114.9759408 121.0289408  80.1130000 114.6729408 121.3969408  79.2830000
 114.4759408 121.4979408  80.7810000 112.5319408 143.9129408  76.2690000
 113.3199408 143.8259408  76.8050000 112.8589408 144.0669408  75.3830000
 116.3219408 127.4929408  83.9420000 116.3019408 126.7529408  84.5480000
 117.1049408 127.9849408  84.1900000  90.1739408 131.8329408  71.6060000
  90.4409408 131.6049408  72.4960000  90.8999408 132.3529408  71.2630000
 115.7369408 139.1459408  68.1800000 114.8499408 139.1279408  68.5390000
 116.1869408 138.4239408  68.6170000 106.6539408 129.5689408  67.1000000
 106.2859408 129.1019408  66.3490000 107.5579408 129.2609408  67.1550000
 108.3429408 145.7469408  66.0430000 108.8659408 144.9999408  65.7510000
 107.5969408 145.7659408  65.4440000  94.7929408 145.8129408  65.2480000
  94.3529408 146.6369408  65.4600000  94.0799408 145.1949408  65.0880000
 113.2419408 143.1659408  70.4920000 112.9709408 143.7249408  69.7630000
 112.5509408 142.5069408  70.5570000 115.7379408 146.5139408  76.0000000
 115.5399408 145.6189408  75.7260000 114.8859408 146.8929408  76.2160000
  90.0309408 126.3349408  67.2890000  89.4529408 125.8939408  66.6650000
  90.7089408 126.7369408  66.7450000  95.4109408 121.6389408  74.1010000
  96.3529408 121.5459408  73.9540000  95.1199408 122.2449408  73.4200000
 102.0409408 123.7889408  60.3090000 101.4489408 124.5119408  60.1020000
 102.7159408 123.8299408  59.6310000 114.4599408 122.0869408  77.5660000
 114.6979408 122.1839408  76.6440000 113.9199408 121.2969408  77.5930000
  98.5499408 124.3989408  79.4280000  99.1569408 124.0959408  80.1040000
  97.8149408 123.7869408  79.4750000 111.2339408 121.7299408  71.0500000
 111.0569408 121.7479408  71.9900000 111.0979408 122.6329408  70.7630000
 112.1169408 126.2239408  76.4610000 111.5759408 126.8179408  76.9810000
 111.6809408 126.1839408  75.6100000 117.9949408 121.5439408  69.2960000
 117.6689408 120.7739408  69.7610000 117.5859408 121.4939408  68.4320000
  94.1849408 139.2609408  75.5620000  93.2749408 139.4589408  75.3410000
  94.2369408 139.3929408  76.5080000 111.5719408 136.0879408  79.4610000
 111.2589408 136.5549408  80.2350000 112.0279408 135.3219408  79.8100000
 114.5889408 132.8039408  78.0590000 115.3309408 132.2919408  77.7360000
 114.9889408 133.5189408  78.5550000  92.6959408 124.0899408  81.8710000
  92.3059408 123.5869408  81.1560000  92.9999408 124.8979408  81.4560000
 119.8669408 142.4849408  83.7190000 120.5199408 142.0109408  83.2050000
 119.1229408 142.5889408  83.1250000 112.9719408 149.7709408  66.6800000
 112.3179408 150.1079408  67.2920000 113.6439408 149.3789408  67.2390000
 120.0319408 129.3559408  67.3470000 119.0959408 129.2539408  67.5190000
 120.1719408 128.9109408  66.5120000 102.1399408 127.4559408  72.2220000
 103.0799408 127.4309408  72.0430000 101.9669408 126.6499408  72.7080000
 112.2569408 132.3619408  71.4830000 111.7519408 133.1539408  71.2990000
 112.2079408 131.8529408  70.6740000 117.9939408 128.9349408  78.7130000
 118.8849408 128.7869408  79.0320000 117.4419408 128.4079408  79.2910000
  92.6369408 128.9269408  68.6340000  93.0599408 129.1289408  69.4690000
  91.7709408 129.3279408  68.7010000  91.9669408 128.2519408  78.4270000
  92.8179408 128.6559408  78.5950000  91.4089408 128.5619408  79.1400000
 117.5039408 125.9579408  72.6760000 117.6349408 125.1329408  72.2080000
 117.4329408 126.6169408  71.9850000  96.0659408 123.5049408  63.3350000
  95.7129408 124.3689408  63.5490000  95.3759408 123.0859408  62.8200000
 110.1629408 123.2489408  67.1740000 110.7889408 122.6829408  67.6270000
 109.4289408 123.3299408  67.7820000 106.8479408 149.6619408  70.6200000
 106.3209408 149.0759408  71.1630000 106.2789408 149.8849408  69.8840000
  95.8869408 130.2809408  65.3640000  95.6359408 130.8369408  66.1020000
  95.8729408 130.8659408  64.6070000 112.0509408 147.8479408  81.3780000
 112.2919408 147.3129408  80.6220000 112.4079408 148.7149408  81.1820000
 116.0049408 148.4509408  80.5770000 115.3879408 147.8689408  80.1320000
 115.6789408 149.3319408  80.3920000 105.9519408 135.9449408  60.6750000
 105.0699408 135.6069408  60.8280000 106.3909408 135.2529408  60.1800000
 112.1649408 127.7679408  68.6350000 113.0789408 127.4839408  68.6030000
 112.1279408 128.5239408  68.0490000 114.3869408 130.8979408  67.2380000
 114.6949408 131.3449408  68.0260000 115.0989408 131.0059408  66.6070000
 110.4669408 147.5979408  76.5020000 110.0149408 148.4079408  76.7400000
 109.9129408 146.9009408  76.8520000 107.1799408 144.4859408  71.5940000
 107.1339408 144.0919408  70.7230000 107.8769408 145.1389408  71.5260000
 117.1109408 127.9229408  70.7590000 116.6699408 128.6599408  71.1820000
 117.2859408 128.2279408  69.8680000 114.4309408 128.2329408  60.1660000
 114.9999408 128.8329408  59.6840000 114.9499408 127.9689408  60.9260000
 117.6649408 137.8339408  80.4340000 117.0099408 137.9209408  81.1270000
 117.7929408 138.7259408  80.1110000 110.4459408 125.7249408  65.9510000
 110.6899408 124.9389408  66.4390000 111.2809408 126.0999408  65.6680000
  94.0989408 137.2339408  80.9040000  93.5579408 137.6299408  80.2210000
  94.7849408 137.8809408  81.0720000 113.0409408 145.6989408  67.7480000
 112.2169408 146.1149408  67.4950000 113.0589408 144.8799408  67.2530000
 105.0709408 123.1099408  71.9730000 105.9309408 122.7019408  71.8700000
 104.5769408 122.4959408  72.5170000  91.2549408 126.8109408  74.1630000
  90.3669408 126.7379408  74.5100000  91.5479408 127.6809408  74.4330000
  91.2039408 138.3319408  68.1590000  91.7869408 138.4599408  68.9080000
  90.4139408 137.9419408  68.5330000 100.8509408 138.0429408  80.5640000
 101.5169408 137.8769408  79.8970000 100.6929408 137.1879408  80.9640000
 115.3289408 133.5029408  71.5810000 115.0329408 134.2309408  72.1270000
 116.1189408 133.1829408  72.0170000 117.1119408 147.8559408  74.3000000
 116.6299408 147.3489408  74.9530000 118.0099408 147.8809408  74.6300000
 114.7879408 122.1149408  65.8990000 114.1839408 121.3719408  65.9120000
 115.6579408 121.7159408  65.9040000 109.4179408 135.1679408  76.0930000
 110.2329408 134.6729408  76.0060000 109.6999408 136.0539408  76.3210000
 117.7659408 133.5989408  63.8470000 117.7389408 133.8419408  64.7720000
 117.9009408 134.4269408  63.3850000  95.1689408 134.5189408  76.3780000
  95.8409408 134.4369408  77.0540000  94.4199408 134.9079408  76.8290000
 114.5049408 123.7859408  68.3370000 114.6659408 123.1259408  67.6630000
 115.3689408 123.9629408  68.7110000 117.8919408 135.9599408  61.8140000
 117.0629408 135.4949408  61.6950000 118.2699408 136.0039408  60.9360000
 111.4209408 125.9589408  73.7260000 110.7449408 126.4539408  73.2630000
 112.0389408 125.6999408  73.0420000  94.4059408 130.8699408  61.0480000
  93.6999408 131.4429408  61.3470000  95.1239408 131.0339408  61.6600000
 107.9489408 137.1749408  71.2960000 107.9059408 136.2389408  71.0990000
 108.8179408 137.2979408  71.6800000 115.4809408 131.9639408  69.4060000
 115.1199408 132.5119408  70.1030000 116.2799408 131.5939408  69.7810000
 117.2379408 124.9699408  68.0610000 117.3909408 125.8909408  68.2740000
 117.5609408 124.8749408  67.1650000 106.7859408 138.4209408  61.6810000
 106.7219408 137.5299408  61.3370000 107.4129408 138.8559408  61.1040000
 112.8489408 133.5719408  79.9600000 113.5609408 133.2709408  79.3950000
 112.1069408 133.0129408  79.7290000 113.2589408 120.4689408  74.2250000
 113.7039408 119.7619408  73.7580000 113.9489408 121.1049408  74.4120000
  98.5139408 138.9249408  64.6940000  98.4449408 137.9949408  64.9100000
  97.8739408 139.0569408  63.9950000  90.9149408 132.1979408  63.5130000
  90.7669408 132.8599408  62.8380000  90.2449408 131.5339408  63.3490000
 106.2619408 125.6629408  71.8050000 107.1559408 125.3529408  71.9450000
 105.7269408 124.8699408  71.8260000 115.2609408 122.5219408  75.1500000
 116.1599408 122.1979408  75.2140000 115.1129408 122.6349408  74.2110000
 116.0369408 129.7699408  72.4210000 116.3529408 129.1019408  73.0300000
 115.0999408 129.8379408  72.6050000 113.0209408 128.4339408  63.5050000
 113.2149408 129.3699408  63.4500000 113.4379408 128.1499408  64.3190000
 108.3969408 121.7669408  64.5070000 108.1719408 121.0319408  65.0770000
 109.3529408 121.8069408  64.5340000 119.4079408 140.4649408  72.4830000
 118.5159408 140.4729408  72.8300000 119.2959408 140.4509408  71.5330000
 109.9099408 128.3669408  70.0660000 109.9099408 129.2509408  69.6990000
 110.6139408 127.9149408  69.6030000 112.3429408 137.8229408  73.7280000
 112.4789408 138.5569408  74.3260000 111.4959408 137.9999408  73.3180000
 108.5539408 138.9259408  84.6820000 108.7939408 138.2999408  85.3660000
 109.3529408 139.4279408  84.5250000  90.9789408 131.7839408  66.4660000
  90.8059408 131.5689408  65.5490000  90.8379408 130.9619408  66.9360000
 108.5449408 126.2349408  68.9460000 108.6869408 126.3049408  68.0020000
 108.8589408 127.0669408  69.2990000 107.5829408 122.1169408  71.6990000
 107.5359408 121.9249408  72.6360000 107.4419408 121.2719408  71.2740000
 113.0879408 126.0449408  62.2860000 113.1179408 126.9629408  62.5550000
 112.5769408 126.0479408  61.4770000 109.4299408 149.0179408  60.8690000
 110.3869408 149.0099408  60.8630000 109.1899408 148.4979408  61.6360000
 119.4029408 141.3029408  76.8030000 119.1189408 142.1149408  76.3830000
 120.2919408 141.4879408  77.1050000 119.9999408 123.3119408  68.7350000
 119.2879408 122.6869408  68.8720000 119.6239408 124.1599408  68.9690000
  97.9229408 120.9289408  67.0610000  98.3859408 121.4039408  67.7510000
  97.6119408 121.6119408  66.4670000 116.0629408 126.2019408  62.8730000
 116.7759408 126.4759408  62.2960000 115.4759408 125.7009408  62.3070000
 115.4119408 140.8149408  61.5320000 115.4999408 140.9999408  60.5970000
 116.2239408 140.3649408  61.7650000 118.3659408 125.4669408  79.3010000
 118.8039408 125.9929408  78.6320000 118.0599408 124.6899408  78.8330000
 110.9419408 124.3839408  77.7550000 110.5819408 123.9059408  77.0080000
 111.5239408 125.0359408  77.3640000 119.4049408 129.7769408  61.2160000
 119.7829408 129.6169408  60.3520000 118.8879408 128.9919408  61.4010000
 111.4199408 133.2069408  84.2540000 111.6209408 132.3409408  84.6100000
 111.2789408 133.0559408  83.3200000 119.1759408 130.3779408  82.4850000
 118.2839408 130.5879408  82.2080000 119.0939408 130.1619408  83.4140000
 117.5159408 131.6489408  78.8270000 117.5849408 130.6959408  78.7670000
 117.6049408 131.8379408  79.7610000 118.1189408 133.0759408  83.9840000
 118.7619408 132.6759408  84.5710000 117.4529408 133.4369408  84.5690000
 111.7639408 133.3609408  62.3840000 111.7739408 133.7069408  61.4920000
 110.9559408 132.8499408  62.4340000 118.0309408 145.7699408  60.2010000
 117.6519408 146.3839408  59.5710000 118.7909408 146.2309408  60.5560000
  92.9169408 130.2559408  82.9200000  92.3259408 130.8239408  82.4250000
  93.4999408 130.8599408  83.3800000 111.1939408 124.9999408  84.4080000
 110.3499408 125.2639408  84.7730000 111.2559408 124.0639408  84.5980000
 118.7599408 148.1839408  63.0480000 118.8759408 147.2849408  63.3560000
 119.4779408 148.3219408  62.4310000  92.6489408 127.0719408  83.3300000
  92.9159408 127.8839408  82.8980000  92.1039408 126.6239408  82.6820000
 112.4329408 144.4709408  60.8190000 111.6569408 144.3989408  61.3750000
 112.5059408 143.6149408  60.3970000 117.0089408 127.7539408  80.9100000
 117.1639408 127.5669408  81.8360000 116.1749408 127.3249408  80.7160000
 109.5569408 139.2589408  64.7920000 109.8279408 138.5009408  64.2750000
 109.5719408 139.9889408  64.1730000 116.9399408 130.5709408  65.5480000
 117.2969408 131.4359408  65.7460000 117.5429408 130.2049408  64.9000000
 112.1869408 127.3489408  83.2340000 112.6329408 127.2299408  82.3960000
 111.9849408 126.4599408  83.5270000 113.0549408 146.8219408  75.9560000
 112.1179408 146.8199408  76.1500000 113.1779408 146.0819408  75.3610000
 116.0829408 134.9759408  82.9120000 116.8299408 134.5689408  82.4730000
 116.1679408 134.7089408  83.8270000  91.7139408 124.7479408  64.2270000
  91.3929408 124.3309408  63.4270000  91.0859408 124.4889408  64.9010000
 116.7119408 148.8939408  61.2240000 117.5319408 148.5429408  61.5710000
 116.3319408 149.3829408  61.9540000 114.2559408 143.5429408  78.3680000
 114.2759408 142.7569408  78.9150000 115.1489408 143.6239408  78.0320000
 114.1759408 138.5089408  61.7660000 114.5339408 139.3739408  61.5650000
 114.8279408 138.1069408  62.3410000 115.2449408 135.1359408  79.2390000
 114.6809408 135.3399408  79.9860000 115.0279408 135.8009408  78.5860000
 117.8889408 122.9389408  60.7890000 117.1389408 122.3659408  60.9500000
 117.5709408 123.8159408  61.0000000 107.5889408 125.9449408  81.8650000
 107.9269408 125.0509408  81.9150000 108.2399408 126.4199408  81.3480000
 110.0679408 126.6019408  80.6770000 110.4109408 125.7399408  80.4420000
 110.8469408 127.1369408  80.8290000 119.4139408 123.1659408  76.0720000
 119.2369408 122.3849408  76.5970000 118.9069408 123.8589408  76.4960000
 107.8799408 127.6249408  84.1220000 107.7579408 126.6759408  84.0920000
 107.0159408 127.9709408  84.3480000 114.0009408 124.7069408  65.0710000
 113.8849408 124.5229408  64.1390000 114.2479408 123.8649408  65.4530000
 118.6979408 124.9809408  83.9730000 119.2289408 125.6649408  84.3820000
 119.2709408 124.2149408  83.9480000  99.8899408 131.8059408  77.1790000
 100.2009408 131.2239408  77.8720000 100.1229408 131.3559408  76.3660000
  92.2539408 135.9619408  84.7120000  91.4929408 135.4689408  84.4070000
  93.0069408 135.4519408  84.4130000 110.0029408 129.2039408  83.4090000
 110.8009408 128.6759408  83.4560000 109.3039408 128.6049408  83.6730000
 113.6059408 132.7209408  74.1930000 113.3069408 132.6279408  73.2890000
 113.8659408 133.6389408  74.2670000 113.0969408 127.0939408  80.7320000
 113.5719408 127.7899408  80.2780000 113.5829408 126.2959408  80.5220000
 111.2829408 124.2129408  70.2370000 112.1709408 124.4309408  70.5200000
 110.9569408 125.0169408  69.8310000  95.2779408 131.5559408  67.5480000
  94.8449408 130.9229408  68.1220000  95.5749408 132.2489408  68.1370000
  96.0519408 126.0389408  72.9900000  96.7619408 125.9259408  72.3580000
  95.9799408 126.9859408  73.1040000 116.9689408 146.1229408  82.1750000
 117.8909408 146.2139408  82.4190000 116.8059408 146.8519408  81.5770000
  90.5089408 129.7659408  73.8980000  89.8269408 129.7809408  74.5700000
  90.2249408 129.0889408  73.2830000 112.0069408 133.9469408  76.1180000
 112.6479408 133.3789408  75.6900000 112.4899408 134.3509408  76.8390000
  93.1369408 135.9089408  77.4420000  93.2879408 136.7359408  77.8990000
  92.3239408 136.0479408  76.9560000 114.1139408 123.7159408  81.1230000
 114.5879408 124.4759408  80.7840000 114.5419408 123.5189408  81.9560000
 103.7419408 126.4529408  75.6390000 104.2449408 126.8479408  74.9270000
 103.4279408 127.1979408  76.1520000  93.9139408 134.3159408  80.0960000
  93.3239408 135.0459408  80.2810000  93.8699408 134.2069408  79.1460000
 109.3529408 129.0949408  79.9650000 108.9699408 129.8979408  80.3180000
 109.1119408 128.4159408  80.5960000 107.2159408 122.2419408  74.2630000
 107.4569408 121.6839408  75.0030000 106.9959408 123.0849408  74.6600000
  96.1759408 123.6459408  83.8610000  97.0319408 123.4339408  84.2340000
  95.6269408 123.8449408  84.6190000  90.6509408 134.1239408  83.5250000
  89.7119408 133.9479408  83.5810000  90.9809408 133.4709408  82.9080000
  92.0539408 132.5049408  81.6720000  92.7779408 133.0489408  81.3630000
  91.3189408 132.7389408  81.1060000 117.4739408 128.2959408  67.3770000
 117.0789408 129.0559408  66.9490000 117.4529408 127.6089408  66.7110000
  94.6389408 128.2059408  60.3610000  94.5499408 129.1419408  60.5400000
  95.5799408 128.0399408  60.4160000  93.5789408 125.2939408  74.7230000
  94.2869408 125.7469408  74.2640000  92.8469408 125.9109408  74.7040000
 104.3679408 128.5949408  80.4910000 104.4269408 129.5469408  80.5680000
 104.3979408 128.4279408  79.5490000  92.4339408 149.4479408  81.3220000
  91.7669408 148.7629408  81.3040000  92.1439408 150.0829408  80.6670000
 109.6399408 137.0629408  81.6660000 110.2749408 137.2579408  82.3550000
 109.4069408 137.9179408  81.3040000 117.1349408 132.3819408  81.4320000
 116.3539408 131.8949408  81.6950000 117.7049408 132.3559408  82.2000000
  91.7099408 124.5589408  77.3620000  91.2679408 124.1129408  76.6390000
  91.0809408 125.2169408  77.6580000  93.7859408 123.1389408  65.5410000
  94.7399408 123.2159408  65.5740000  93.5029408 123.8839408  65.0110000
 112.3099408 130.3559408  81.7640000 111.7209408 131.1059408  81.6740000
 111.7629408 129.6659408  82.1410000 118.6129408 140.5529408  80.3810000
 119.2029408 140.8629408  81.0670000 118.5069408 141.3039408  79.7970000
 108.5159408 145.7009408  60.7170000 108.6129408 146.6029408  61.0230000
 109.1969408 145.5999408  60.0510000 114.3199408 135.3179408  73.4330000
 113.7379408 136.0469408  73.2200000 114.8819408 135.6559408  74.1310000
 112.5469408 135.5769408  64.2880000 111.8889408 136.0879408  63.8160000
 112.4899408 134.7009408  63.9070000 109.5539408 120.0589408  77.2370000
 109.8519408 120.3489408  76.3750000 108.6799408 120.4369408  77.3290000
 114.5779408 146.1839408  79.7680000 115.3119408 145.7339408  79.3490000
 113.8019408 145.8429408  79.3220000 111.9709408 149.7309408  64.2900000
 111.4919408 150.5529408  64.3860000 112.2929408 149.5359408  65.1700000
 109.7779408 143.9979408  73.5600000 110.2779408 144.1409408  72.7560000
 110.3799408 143.5269408  74.1360000 106.2369408 122.5929408  67.0360000
 106.4979408 121.7169408  66.7530000 107.0569408 123.0199408  67.2820000
 107.8549408 123.6489408  68.8230000 108.0219408 124.5789408  68.9790000
 107.6949408 123.2839408  69.6930000 110.3289408 144.1079408  62.8240000
 109.6049408 144.5969408  62.4350000 110.2499408 144.2699408  63.7640000
 111.6989408 120.0119408  79.4060000 112.3109408 119.7979408  78.7010000
 110.9559408 120.4209408  78.9620000 117.1489408 141.4149408  68.1260000
 117.0169408 141.9989408  68.8730000 116.3659408 140.8649408  68.1090000
 111.1139408 122.1109408  64.7390000 111.1109408 122.6599408  65.5240000
 111.5609408 122.6399408  64.0780000 112.0079408 130.1399408  76.2200000
 111.9829408 130.3189408  75.2790000 112.8879408 129.7949408  76.3750000
 106.6089408 138.0909408  73.3550000 106.7289408 137.5009408  72.6110000
 107.4469408 138.5439408  73.4390000 117.8639408 137.4319408  69.3610000
 117.7469408 137.2979408  70.3010000 118.3079408 138.2779408  69.2930000
  91.0329408 145.6039408  73.9710000  90.2089408 145.2399408  74.2930000
  91.2309408 145.0919408  73.1870000  91.9339408 149.6879408  78.6420000
  92.2469408 148.7839408  78.6550000  91.5109408 149.7829408  77.7880000
  91.1559408 138.4609408  80.0400000  90.2709408 138.7809408  79.8660000
  91.0349408 137.5459408  80.2950000  92.0799408 148.3339408  63.5080000
  91.6479408 148.7749408  62.7770000  92.4669408 149.0439408  64.0210000
 107.4589408 139.6149408  66.9330000 106.5709408 139.2699408  67.0270000
 107.7209408 139.3639408  66.0470000 116.6749408 137.5639408  73.5590000
 116.2789408 137.7839408  74.4030000 116.8119408 136.6169408  73.5990000
 109.9319408 143.5469408  65.4520000 109.4589408 142.7149408  65.4690000
 110.8459408 143.3059408  65.6030000 113.0439408 141.6259408  73.4910000
 112.5689408 141.6099408  72.6600000 113.9519408 141.4399408  73.2520000
 111.5259408 147.0239408  63.9340000 111.8329408 146.7029408  63.0860000
 111.8009408 147.9409408  63.9570000 112.5659408 143.1829408  66.2490000
 112.5139408 142.3989408  66.7960000 113.4839408 143.2299408  65.9820000
  92.7359408 143.2419408  81.7040000  92.8889408 143.6109408  80.8350000
  92.5469408 143.9999408  82.2570000 115.2289408 123.2469408  72.4100000
 114.8559408 122.6399408  71.7710000 116.0849408 123.4789408  72.0500000
  93.0529408 146.7679408  75.5720000  92.4119408 146.2939408  75.0430000
  93.1159408 147.6289408  75.1590000 114.1119408 141.8259408  63.7350000
 114.7569408 142.4489408  64.0690000 114.4369408 141.5849408  62.8680000
 115.3229408 136.5199408  63.7300000 115.4299408 135.8639408  63.0410000
 114.4889408 136.2979408  64.1450000 115.6729408 140.8899408  83.2500000
 115.9379408 141.6929408  82.8020000 115.0279408 140.4909408  82.6670000
 118.0719408 135.0429408  74.1250000 118.3279408 134.1539408  73.8810000
 118.7059408 135.6059408  73.6790000 111.4969408 137.6769408  68.9910000
 110.6869408 137.9649408  69.4120000 111.2069408 137.1699408  68.2330000
 111.3089408 141.2979408  70.9070000 110.3719408 141.3809408  71.0840000
 111.3559408 140.9219408  70.0280000 112.7679408 139.3119408  77.3790000
 112.3009408 140.0629408  77.0110000 113.4259408 139.6989408  77.9570000
 109.7129408 141.5399408  67.5910000 109.1179408 140.8719408  67.2500000
 110.5109408 141.0599408  67.8100000 113.7039408 137.7479408  70.5130000
 114.1529408 136.9339408  70.2860000 112.9529408 137.7799408  69.9200000
 117.4709408 145.8359408  66.5070000 117.7579408 144.9329408  66.6370000
 117.3959408 145.9299408  65.5570000 117.1539408 145.2229408  78.8610000
 117.2309408 144.5909408  78.1470000 117.9429408 145.7599408  78.7930000
 118.9979408 135.2499408  77.3840000 118.6679408 135.0439408  78.2580000
 118.5579408 134.6249408  76.8080000 107.0249408 142.7099408  77.6690000
 106.8809408 142.0149408  77.0260000 106.7759408 143.5139408  77.2140000
 115.5159408 122.1409408  62.2740000 114.6969408 122.6339408  62.2290000
 115.2789408 121.3189408  62.7030000 117.8379408 136.4779408  64.9610000
 117.1649408 136.4449408  64.2810000 118.2269408 137.3489408  64.8720000
 108.1619408 131.4479408  78.1310000 108.1129408 131.6889408  79.0560000
 109.0279408 131.7449408  77.8520000 101.7949408 124.1809408  75.4660000
 101.0579408 124.3869408  76.0420000 102.4969408 124.7619408  75.7580000
 114.6279408 149.7129408  63.2650000 113.6809408 149.5999408  63.3410000
 114.9819408 149.3039408  64.0550000 114.1549408 148.4689408  68.6710000
 114.9869408 147.9959408  68.6860000 113.5239408 147.8559408  69.0480000
 117.6299408 148.3429408  67.5860000 117.5669408 147.3909408  67.5050000
 117.5549408 148.5079408  68.5260000 116.7179408 143.2369408  77.1170000
 117.0469408 143.5299408  76.2670000 116.4409408 142.3329408  76.9690000
 118.6429408 143.4169408  62.1320000 119.5469408 143.7219408  62.2000000
 118.2299408 144.0239408  61.5180000 108.1019408 149.3339408  73.8490000
 108.8249408 149.9569408  73.9170000 108.5209408 148.5029408  73.6270000
  90.8829408 135.8929408  80.9960000  91.0199408 135.6469408  81.9110000
  90.0429408 135.4959408  80.7640000 119.7119408 147.0349408  78.1520000
 119.5509408 147.4989408  77.3300000 119.2639408 147.5589408  78.8150000
  97.1339408 143.6299408  77.5170000  96.9599408 144.4419408  77.0430000
  97.4829408 143.0339408  76.8540000  94.8129408 140.6049408  80.3340000
  94.8989408 141.5329408  80.5520000  94.8869408 140.1529408  81.1740000
 115.3029408 146.0099408  71.7730000 115.0519408 145.5969408  70.9470000
 114.6769408 146.7259408  71.8830000 105.4609408 143.4619408  63.0360000
 105.9439408 143.2799408  62.2300000 105.3659408 142.6069408  63.4560000
 103.5109408 147.9189408  75.3630000 104.4469408 147.8499408  75.5500000
 103.2639408 147.0499408  75.0470000 115.1669408 145.1589408  61.8110000
 114.2559408 144.8679408  61.8270000 115.3879408 145.2049408  60.8810000
 111.1539408 147.1659408  66.5480000 111.4189408 146.9389408  65.6570000
 111.5359408 148.0299408  66.7000000 106.0469408 124.5639408  75.7710000
 106.0809408 124.5099408  76.7260000 105.4529408 125.2939408  75.5940000
  92.8799408 147.4629408  72.2670000  92.0239408 147.0379408  72.2150000
  93.2679408 147.3299408  71.4030000 118.6919408 139.2009408  63.8620000
 119.5599408 138.8229408  63.7170000 118.1619408 138.8679408  63.1380000
 117.3199408 138.8899408  61.5420000 117.8129408 139.1749408  60.7720000
 117.3469408 137.9339408  61.5040000  90.1709408 145.8719408  63.6420000
  90.6029408 145.3299408  62.9810000  90.8439408 146.4929408  63.9200000
 111.9069408 140.2649408  68.2860000 111.7919408 139.3209408  68.3890000
 112.4119408 140.3589408  67.4790000 110.8209408 145.7819408  71.5460000
 110.6039408 145.9449408  70.6280000 110.7959408 146.6459408  71.9560000
 117.3569408 121.1799408  66.2670000 117.6309408 121.6629408  65.4870000
 118.0139408 120.4909408  66.3660000 108.4929408 140.8929408  71.3400000
 108.2899408 140.2629408  70.6490000 107.8709408 141.6069408  71.2050000
 117.5929408 148.9229408  70.4380000 117.4519408 149.3709408  71.2720000
 118.5019408 148.6269408  70.4740000  99.8979408 148.3239408  77.5680000
 100.5479408 147.6229408  77.5210000  99.0609408 147.8869408  77.4100000
  90.6229408 145.0849408  79.8260000  91.5509408 144.8679408  79.9130000
  90.5909408 145.7159408  79.1080000 119.5049408 129.6089408  63.9390000
 119.2369408 129.4409408  63.0360000 120.3389408 129.1489408  64.0320000
 114.9399408 148.5519408  72.8940000 115.6679408 148.0659408  73.2810000
 115.3499408 149.3119408  72.4820000 116.2609408 140.5759408  76.5330000
 115.9599408 139.7359408  76.1870000 117.1519408 140.4039408  76.8380000
  90.9209408 149.9589408  69.9480000  91.4189408 149.3979408  69.3520000
  90.0779408 150.0829408  69.5120000  90.1289408 120.2789408  66.1440000
  90.1339408 120.2069408  65.1890000  90.6739408 119.5509408  66.4420000
 110.1059408 146.3139408  68.9570000 110.3829408 146.3689408  68.0430000
 109.8789408 147.2129408  69.1940000 107.8029408 121.4979408  62.0150000
 107.8179408 121.3079408  62.9530000 107.9959408 120.6579408  61.5970000
 111.2849408 141.4409408  63.2030000 112.1909408 141.6019408  63.4660000
 110.9289408 142.3109408  63.0260000 114.8339408 138.1349408  75.5300000
 115.1179408 137.2749408  75.8380000 114.2629408 138.4619408  76.2250000
 115.9399408 143.0769408  70.1740000 115.0409408 142.8989408  70.4490000
 115.8779408 143.8789408  69.6550000  90.5509408 143.0329408  68.3860000
  90.1859408 143.4379408  67.6000000  89.8569408 143.1109408  69.0410000
 109.0939408 145.2559408  77.6310000 108.8449408 145.5209408  78.5160000
 108.5189408 144.5169408  77.4310000 114.6889408 146.4959408  83.9890000
 115.4609408 146.4079408  83.4300000 114.0209408 145.9579408  83.5630000
 109.7889408 147.3129408  83.2930000 110.5389408 147.1429408  82.7230000
 109.6029408 148.2449408  83.1720000 116.0789408 148.6559408  65.3270000
 116.5179408 148.9459408  66.1270000 116.5309408 147.8469408  65.0860000
 111.9989408 147.5469408  61.0180000 112.9239408 147.6119408  60.7810000
 111.7279408 146.6889408  60.6910000 107.6129408 140.7449408  63.2240000
 107.4149408 139.8939408  62.8320000 107.7729408 141.3209408  62.4770000
 118.7029408 143.2359408  80.3090000 119.5569408 143.6369408  80.1500000
 118.0819408 143.8059408  79.8540000 109.1839408 142.3919408  79.3730000
 108.8759408 142.0519408  80.2130000 108.3959408 142.4469408  78.8330000
 112.4529408 142.8319408  84.3870000 113.2899408 143.2969408  84.4070000
 111.9209408 143.3219408  83.7600000 119.3329408 140.1069408  69.6110000
 120.1389408 140.5079408  69.2850000 118.7129408 140.1949408  68.8870000
 119.7389408 121.2499408  82.7270000 119.9719408 120.5979408  82.0660000
 118.7969408 121.1349408  82.8560000 116.4519408 138.2429408  83.9800000
 116.5979408 139.0739408  83.5290000 115.5169408 138.0689408  83.8690000
  92.8429408 145.7119408  83.1490000  93.7689408 145.4969408  83.0340000
  92.8479408 146.5679408  83.5780000 118.0669408 135.0089408  80.1910000
 118.0739408 135.9439408  79.9830000 117.1889408 134.8459408  80.5340000
 119.9059408 148.0329408  81.8660000 119.3759408 148.3819408  82.5830000
 120.0419408 147.1129408  82.0930000 110.8229408 140.4389408  84.5460000
 111.4419408 141.1659408  84.6110000 110.8099408 140.2179408  83.6140000
  93.7959408 122.6399408  61.5360000  93.1589408 123.0979408  60.9870000
  93.2689408 122.0539408  62.0780000 114.2699408 149.2149408  84.6630000
 114.2869408 148.9489408  85.5820000 114.4699408 148.4149408  84.1780000
 110.7379408 123.9019408  80.2470000 110.8629408 123.9519408  79.3000000
 111.6089408 124.0529408  80.6130000 119.0199408 148.8129408  84.3330000
 119.8619408 149.1639408  84.6250000 118.8459408 148.0819408  84.9260000
 116.1579408 146.4039408  63.9090000 115.6669408 147.2129408  64.0520000
 115.8099408 146.0549408  63.0890000 107.0399408 148.4119408  84.8180000
 107.5809408 148.5059408  85.6020000 107.1749408 147.5059408  84.5410000
 113.6199408 144.9529408  82.0760000 112.8519408 144.5989408  81.6270000
 114.1499408 145.3379408  81.3780000 111.2529408 143.5169408  80.7880000
 110.5179408 143.0819408  80.3570000 110.8559408 143.9929408  81.5170000
  93.1729408 149.6979408  83.8650000  92.8949408 149.4999408  82.9710000
  93.6089408 150.5479408  83.7990000 114.4219408 129.4159408  80.1160000
 115.2529408 129.6309408  80.5400000 113.7539408 129.7569408  80.7110000
  92.7039408 141.1609408  60.5350000  91.8629408 141.6189408  60.5440000
  92.8899408 141.0209408  59.6060000 108.5739408 146.5729408  79.9790000
 109.3969408 147.0059408  80.2050000 107.9349408 146.9379408  80.5900000
 113.9579408 121.6669408  83.3620000 113.0839408 121.9459408  83.6370000
 114.0009408 120.7409408  83.6010000 113.5929408 140.4459408  66.1030000
 114.4549408 140.0469408  66.2220000 113.6239408 140.8299408  65.2270000
 111.0189408 141.9559408  77.3460000 110.6409408 142.0609408  78.2200000
 111.4569408 142.7889408  77.1720000 119.3579408 126.4659408  81.7420000
 118.9689408 126.1709408  80.9190000 119.0259408 125.8529408  82.3980000
  95.0389408 140.2599408  83.3180000  95.4329408 140.8059408  83.9980000
  94.2329408 139.9279408  83.7140000 112.3159408 120.6029408  60.0200000
 112.8489408 120.3259408  60.7650000 112.9519408 120.8169408  59.3370000
  92.0639408 122.4419408  79.6400000  92.0359408 123.1009408  78.9460000
  91.3919408 121.8059408  79.3950000 106.0279408 149.2599408  78.5900000
 105.0909408 149.1729408  78.4130000 106.1359408 148.9249408  79.4800000
 110.3859408 144.2079408  83.2040000 110.0829408 145.1069408  83.3300000
 109.8389408 143.6859408  83.7910000  90.8689408 126.2169408  60.9050000
  91.1979408 126.6709408  60.1290000  91.6129408 126.1979408  61.5060000
 100.0009408 146.2329408  81.9690000 100.8279408 145.7619408  82.0740000
 100.2609408 147.1449408  81.8330000 103.1139408 149.2469408  78.1040000
 103.4209408 148.6579408  77.4150000 102.3449408 149.6749408  77.7280000
 124.1209408  43.6749408  13.7610000 124.0209408  44.4239408  14.3480000
 124.6659408  43.0579408  14.2490000 139.4019408  47.0039408   3.4620000
 139.3069408  46.1259408   3.8320000 138.6369408  47.1089408   2.8970000
 141.2879408  35.2629408  29.9310000 140.5409408  34.9539408  30.4440000
 140.9199408  35.9259408  29.3470000 126.9639408  57.2739408   4.1330000
 126.2589408  56.7169408   4.4630000 126.9889408  58.0129408   4.7410000
 141.1249408  31.1489408  21.7350000 140.9649408  30.2999408  21.3230000
 141.6349408  31.6379408  21.0890000 126.7109408  48.7099408  21.4700000
 126.3839408  49.3649408  22.0880000 127.6529408  48.8729408  21.4250000
 131.8849408  41.9679408  12.0810000 131.2899408  41.2449408  12.2800000
 132.7569408  41.5759408  12.1090000 125.8789408  36.9689408   8.7010000
 125.4139408  36.1719408   8.4480000 125.9029408  37.4959408   7.9020000
 135.1049408  47.8279408  15.6050000 134.2939408  47.6459408  15.1300000
 135.7899408  47.7719408  14.9380000 120.6359408  44.0729408   8.5360000
 119.8129408  44.3929408   8.1640000 120.9089408  43.3719408   7.9450000
 138.8559408  48.6129408   9.2840000 138.4689408  48.1719408  10.0410000
 138.1489408  49.1559408   8.9360000 129.0639408  38.6819408  17.8260000
 128.4579408  38.2489408  18.4280000 129.3939408  37.9759408  17.2700000
 131.2259408  41.3479408   5.7040000 130.6419408  41.7979408   6.3140000
 131.6789408  40.6969408   6.2400000 137.4669408  45.2269408  17.9080000
 137.9479408  45.1439408  18.7320000 138.1319408  45.1079408  17.2300000
 142.0799408  39.5039408   6.3360000 141.9909408  39.7379408   5.4120000
 142.7389408  40.1109408   6.6740000 125.6149408  43.6859408   8.9500000
 125.7649408  43.7169408   9.8950000 124.7539408  44.0859408   8.8300000
 149.3079408  48.9599408  15.2020000 149.6479408  49.5329408  15.8900000
 149.8979408  49.0979408  14.4610000 122.5329408  37.1629408  28.8470000
 123.2739408  37.5749408  29.2930000 122.8629408  36.9599408  27.9720000
 132.9309408  55.5519408  14.1980000 133.8639408  55.3599408  14.1090000
 132.5239408  55.1209408  13.4470000 148.0369408  35.5629408   5.5490000
 147.0969408  35.6829408   5.4130000 148.2159408  34.6789408   5.2300000
 138.3629408  51.3589408   0.6810000 137.7089408  52.0489408   0.5670000
 138.2789408  50.8169408  -0.1030000 130.6849408  45.9839408   6.6650000
 131.1339408  46.8249408   6.7490000 129.8769408  46.0929408   7.1670000
 138.4319408  34.8569408  25.0460000 138.1149408  34.5139408  25.8810000
 138.3719408  34.1159408  24.4430000 148.7999408  39.9389408  15.7730000
 147.8609408  39.9999408  15.5990000 148.8569408  39.5959408  16.6650000
 122.3889408  50.7699408   3.8460000 123.1819408  51.3059408   3.8470000
 122.6729408  49.9199408   4.1820000 137.9779408  44.4559408  10.6650000
 137.2519408  44.3639408  10.0480000 137.7039408  43.9559408  11.4340000
 129.6549408  54.0029408  30.1860000 129.0479408  54.5939408  29.7410000
 130.5229408  54.3469408  29.9750000 133.5299408  44.6779408   0.5350000
 132.9009408  43.9769408   0.7060000 133.0779408  45.2629408  -0.0730000
 136.9329408  52.0279408  13.3670000 137.2779408  52.9039408  13.1980000
 137.6629408  51.4399408  13.1730000 131.7599408  53.1179408   8.5430000
 131.6899408  53.8819408   7.9720000 132.0759408  52.4179408   7.9710000
 134.5309408  56.0489408   1.8910000 135.1549408  56.0429408   1.1650000
 134.9719408  55.5639408   2.5890000 121.5889408  37.8679408   5.1380000
 121.9129408  37.0799408   4.7030000 122.3749408  38.2939408   5.4810000
 124.3779408  31.6949408  16.6380000 123.4469408  31.8319408  16.4640000
 124.7679408  31.5709408  15.7730000 136.9779408  44.3809408  28.3850000
 137.8199408  43.9829408  28.6060000 137.1409408  44.8459408  27.5640000
 131.0189408  32.1809408  18.1460000 130.7569408  33.1019408  18.1390000
 131.6919408  32.1279408  18.8240000 135.1549408  30.6799408   8.8720000
 134.7649408  31.4279408   8.4200000 135.0899408  29.9599408   8.2450000
 135.4189408  44.0349408  13.0950000 134.8099408  43.9809408  13.8320000
 134.8679408  44.2559408  12.3440000 126.8749408  56.9259408   9.7580000
 127.0919408  57.8089408  10.0560000 127.0169408  56.9499408   8.8120000
 132.2769408  39.0759408  26.9600000 131.8759408  39.8269408  26.5240000
 132.9859408  39.4519408  27.4820000 148.5349408  45.5709408   7.6430000
 148.4489408  46.1489408   6.8850000 148.1879408  46.0809408   8.3750000
 128.3539408  36.3839408   3.5020000 129.0179408  36.9059408   3.0520000
 127.9879408  36.9769408   4.1590000 144.3849408  39.4109408  17.3650000
 144.7209408  38.5179408  17.2950000 144.2909408  39.5589408  18.3060000
 127.7939408  43.7699408   7.0920000 127.1589408  43.5089408   7.7590000
 128.3649408  43.0079408   6.9930000 129.0859408  32.8069408  12.3010000
 129.2659408  33.2629408  11.4790000 129.7729408  33.1059408  12.8980000
 135.8509408  43.9929408   9.0110000 135.1649408  44.5659408   8.6690000
 135.4019408  43.1709408   9.2080000 127.6489408  47.3009408  12.5020000
 127.1329408  47.8939408  13.0490000 127.6139408  46.4609408  12.9600000
 142.4549408  33.6049408   2.6640000 141.6819408  33.5749408   2.1000000
 142.7979408  34.4919408   2.5530000 141.2289408  50.5009408  14.9470000
 140.8759408  51.0379408  15.6570000 141.9479408  51.0209408  14.5870000
 127.2079408  38.2029408  29.8520000 127.3599408  38.7419408  30.6280000
 128.0649408  38.1409408  29.4310000 130.4099408  55.8839408  26.7950000
 130.4019408  56.2829408  25.9250000 129.6159408  56.2129408  27.2170000
 131.1919408  56.2969408   1.5580000 131.2509408  57.2469408   1.6600000
 131.6389408  55.9449408   2.3270000 124.6869408  33.6109408  12.3470000
 123.8339408  33.9499408  12.0730000 125.2309408  34.3909408  12.4540000
 133.1469408  42.3189408  27.0580000 133.5739408  42.0469408  26.2450000
 133.8619408  42.4039408  27.6880000 131.3659408  50.8169408  12.9800000
 131.3449408  51.5859408  12.4090000 132.2869408  50.5579408  12.9990000
 135.5709408  34.5019408  23.2080000 136.1229408  35.1429408  22.7600000
 135.2669408  33.9189408  22.5130000 134.5329408  49.5259408   7.8070000
 134.0209408  48.9609408   8.3850000 133.9069408  50.1799408   7.4950000
 124.9169408  44.0799408   6.0540000 125.2429408  43.2809408   6.4690000
 124.3959408  44.5079408   6.7330000 131.9419408  34.9309408  18.4310000
 132.8109408  35.3169408  18.3240000 131.7659408  34.9919408  19.3700000
 122.9999408  53.7209408   4.9930000 122.5599408  53.1309408   5.6050000
 123.7909408  53.2499408   4.7310000 129.3909408  35.9979408  13.5600000
 128.4679408  35.8209408  13.7410000 129.5449408  35.6099408  12.6990000
 126.4589408  49.0469408  14.2110000 125.7969408  48.9559408  14.8960000
 127.0899408  49.6709408  14.5690000 132.7269408  34.7419408  13.0350000
 133.5559408  34.2759408  12.9230000 132.3699408  34.4009408  13.8560000
 130.9189408  45.5149408  11.9010000 130.0709408  45.1079408  11.7250000
 130.7289408  46.4519408  11.9560000 131.2779408  38.6519408   9.3500000
 131.3409408  37.9429408   9.9910000 130.6729408  39.2789408   9.7440000
 127.3769408  58.8119408   1.6800000 126.6809408  58.2869408   1.2850000
 127.2869408  58.6599408   2.6210000 135.6899408  48.6069408   4.5490000
 135.8669408  48.6029408   3.6090000 136.2479408  47.9129408   4.9010000
 126.0069408  30.8799408   4.4630000 126.8559408  30.4709408   4.2940000
 126.1609408  31.8149408   4.3310000 129.4119408  38.7209408   6.5640000
 129.9009408  38.4549408   7.3430000 130.0189408  39.2819408   6.0810000
 130.9679408  48.3959408  15.9660000 131.6029408  47.8829408  15.4660000
 130.1389408  47.9329408  15.8490000 129.0729408  40.0809408   9.9790000
 129.3089408  40.3209408  10.8750000 128.1399408  39.8699408  10.0250000
 128.6629408  53.0849408   5.7270000 129.1639408  52.7029408   6.4480000
 129.3049408  53.2099408   5.0280000 132.1909408  33.0269408   6.6490000
 132.5829408  33.5069408   7.3790000 132.8259408  32.3399408   6.4440000
 122.7639408  40.3209408  15.9390000 122.1979408  40.7929408  15.3280000
 122.1579408  39.8679408  16.5260000 123.7929408  35.9289408  18.5460000
 124.5359408  35.3939408  18.2680000 123.0419408  35.5539408  18.0850000
 127.2649408  35.4869408  10.7700000 126.6499408  36.0649408  10.3180000
 127.6409408  34.9459408  10.0760000 124.4899408  34.3149408   8.6110000
 123.8189408  33.6769408   8.8510000 124.7519408  34.0669408   7.7250000
 138.2059408  41.1969408  11.0920000 138.7899408  41.1579408  10.3350000
 137.3289408  41.0939408  10.7250000 132.6159408  32.7419408   2.6460000
 132.2479408  33.1119408   1.8440000 133.2749408  33.3789408   2.9240000
 143.6789408  49.2509408  25.6230000 142.9449408  48.9459408  26.1550000
 144.0749408  49.9529408  26.1400000 123.9959408  40.0319408  19.2360000
 124.7059408  39.4889408  18.8920000 124.1359408  40.8909408  18.8370000
 133.6049408  39.6929408   3.1680000 134.0819408  38.9459408   3.5280000
 134.2209408  40.4239408   3.2310000 130.6809408  41.2849408   0.4750000
 130.9629408  41.9649408  -0.1370000 130.5939408  41.7389408   1.3140000
 126.1979408  58.7859408   7.3920000 125.6229408  59.3219408   7.9370000
 126.9389408  59.3569408   7.1890000 135.6389408  36.6119408   8.9870000
 135.6199408  36.6119408   9.9440000 136.5409408  36.8459408   8.7660000
 136.1629408  50.3279408   9.8410000 135.8969408  50.1039408   8.9500000
 135.7949408  49.6309408  10.3840000 138.8369408  49.6889408  13.6890000
 139.6529408  49.8079408  14.1740000 139.0429408  49.9709408  12.7980000
 127.3569408  44.9479408  14.1060000 126.7409408  44.6609408  14.7800000
 127.7119408  44.1349408  13.7450000 121.5759408  31.8369408  12.3790000
 121.6699408  31.3979408  11.5340000 121.7809408  32.7539408  12.1980000
 129.7979408  43.5629408  20.7020000 129.9119408  42.6129408  20.6900000
 130.2249408  43.8659408  19.9000000 125.8779408  41.1339408  28.3530000
 126.6849408  41.2089408  28.8610000 125.1959408  40.9759408  29.0060000
 132.6309408  43.1459408  14.3340000 132.2629408  43.3379408  13.4710000
 132.9819408  42.2589408  14.2530000 130.1429408  38.5439408   2.9460000
 130.7999408  38.6049408   2.2530000 130.5939408  38.8529408   3.7320000
 124.7069408  45.4199408  23.1280000 124.5639408  45.8999408  22.3120000
 124.9709408  46.0909408  23.7570000 122.9149408  46.4549408  14.3630000
 123.5279408  47.1049408  14.7050000 122.2449408  46.3749408  15.0420000
 129.9729408  31.6209408   9.1660000 130.8859408  31.7839408   8.9290000
 130.0159408  31.2549408  10.0490000 132.5159408  39.3919408   7.0440000
 132.9239408  38.9559408   6.2950000 132.6179408  38.7729408   7.7670000
 140.6819408  44.5549408  10.8580000 140.4699408  44.9719408  11.6930000
 139.8309408  44.3559408  10.4670000 138.2509408  40.8129408  27.5970000
 137.9399408  40.8729408  26.6940000 139.1989408  40.9269408  27.5330000
 125.0659408  42.1979408  18.1450000 125.8319408  41.7159408  17.8330000
 124.6889408  42.5859408  17.3550000 124.4699408  36.9909408  21.0950000
 124.3759408  36.7169408  20.1820000 124.4599408  37.9469408  21.0610000
 136.7989408  38.8369408  21.9130000 136.1259408  38.2629408  21.5470000
 137.3839408  38.2479408  22.3890000 137.3339408  31.3149408  17.3720000
 137.1459408  32.1649408  17.7700000 136.5919408  30.7639408  17.6200000
 124.3569408  54.6489408  13.1330000 125.1819408  55.0809408  12.9100000
 123.8739408  55.2999408  13.6410000 126.0859408  44.8579408  11.4430000
 125.4669408  45.3769408  10.9300000 125.9959408  45.1919408  12.3360000
 133.4409408  46.1729408   8.5040000 133.3789408  45.9409408   7.5780000
 132.7799408  46.8539408   8.6260000 128.5019408  34.1379408   8.6120000
 128.8629408  34.4539408   7.7840000 128.9809408  33.3279408   8.7890000
 129.2219408  59.9579408  19.5540000 129.1209408  59.3189408  18.8490000
 129.7729408  60.6449408  19.1780000 125.8979408  56.1729408  15.7840000
 124.9769408  56.4009408  15.6590000 126.2559408  56.1269408  14.8980000
 124.1719408  38.0399408   6.5580000 123.5999408  38.3309408   7.2680000
 124.3229408  38.8259408   6.0330000 140.9309408  38.1219408  17.8530000
 140.4899408  38.4399408  18.6410000 141.2959408  38.9089408  17.4480000
 123.5469408  59.1949408  14.3880000 123.4529408  58.7309408  13.5560000
 124.0779408  59.9629408  14.1760000 127.6459408  45.5889408   0.5610000
 128.1379408  44.9059408   1.0160000 128.1499408  46.3889408   0.7110000
 129.7719408  32.8839408   5.6410000 130.6209408  32.7349408   6.0590000
 129.7999408  32.3549408   4.8440000 129.0259408  46.3989408  15.6100000
 128.7289408  46.0099408  16.4320000 128.4029408  46.0809408  14.9560000
 144.9449408  40.7089408  22.4340000 144.4059408  40.1399408  22.9830000
 144.3479408  41.3989408  22.1430000 132.9919408  36.0789408  20.9050000
 133.2669408  36.9929408  20.8340000 133.4549408  35.7489408  21.6750000
 133.9919408  40.0189408  29.0960000 134.7189408  39.4589408  29.3680000
 134.3539408  40.5539408  28.3890000 135.0069408  37.1169408  28.0480000
 135.2319408  37.0419408  28.9750000 134.1499408  36.6969408  27.9740000
 139.7759408  47.0209408   6.7930000 139.6259408  47.7959408   6.2530000
 139.1299408  47.0889408   7.4960000 144.9269408  45.3199408   9.5870000
 145.3159408  44.5869408  10.0650000 145.3279408  45.2809408   8.7190000
 125.7419408  41.5499408  12.2860000 125.5099408  41.7689408  13.1890000
 126.5849408  41.9799408  12.1450000 149.0709408  32.3679408  13.5800000
 149.1899408  32.7229408  14.4610000 149.9599408  32.2269408  13.2550000
 135.3469408  37.8619408  13.5700000 135.5059408  37.1419408  12.9600000
 136.2199408  38.1279408  13.8590000 133.9419408  57.7469408  11.2050000
 133.6119408  57.6369408  12.0970000 133.2129408  58.1429408  10.7270000
 121.1999408  47.8119408  29.4490000 121.9049408  48.0979408  30.0290000
 121.6469408  47.3699408  28.7280000 122.4759408  43.4329408  11.5170000
 122.9669408  43.3179408  12.3310000 122.3929408  44.3819408  11.4200000
 124.0809408  40.9719408  10.1910000 123.3579408  41.5829408  10.3280000
 124.6869408  41.1519408  10.9110000 122.4699408  32.2689408   9.4860000
 121.9209408  33.0069408   9.2190000 121.8819408  31.5139408   9.4670000
 123.0199408  46.0899408  11.5960000 122.9749408  46.1599408  12.5500000
 123.1089408  46.9939408  11.2930000 132.5739408  44.1909408  16.7410000
 132.6879408  43.7449408  15.9010000 133.3929408  44.6689408  16.8720000
 135.7109408  42.0629408  28.0250000 136.5479408  41.6029408  28.0980000
 135.9129408  42.9669408  28.2670000 129.4949408  45.9309408   3.8740000
 129.7659408  45.7989408   4.7830000 129.9059408  46.7569408   3.6190000
 128.0449408  48.2839408  17.2700000 127.8129408  47.5769408  17.8720000
 128.2419408  47.8409408  16.4450000 128.0199408  31.0509408  14.0630000
 128.1869408  31.8039408  13.4960000 128.5849408  31.1939408  14.8240000
 132.3299408  53.4389408   4.0320000 131.5709408  52.9229408   3.7610000
 133.0749408  53.0059408   3.6160000 123.8559408  58.2669408   6.1100000
 123.5329408  59.1219408   5.8250000 124.7399408  58.4389408   6.4320000
 122.1229408  52.1309408  17.8600000 122.8419408  51.8089408  17.3180000
 122.3069408  53.0629408  17.9750000 138.9909408  38.3469408   5.9690000
 139.9089408  38.3779408   6.2400000 138.8449408  37.4349408   5.7200000
 125.8029408  46.0779408   4.3120000 126.5949408  45.6419408   3.9980000
 125.6179408  45.6609408   5.1540000 135.6349408  41.6509408   3.7230000
 136.4549408  41.1739408   3.8460000 135.4639408  42.0589408   4.5730000
 133.6209408  45.0579408  11.2560000 132.8359408  45.3699408  11.7060000
 133.5009408  45.3309408  10.3470000 126.7349408  40.4089408  16.9120000
 127.6709408  40.2119408  16.8740000 126.3309408  39.5979408  17.2210000
 129.1019408  49.7299408  22.1000000 129.8669408  49.3959408  21.6300000
 129.3469408  50.6199408  22.3550000 128.8879408  50.4159408   1.5990000
 128.2829408  49.7779408   1.9770000 128.7719408  51.2019408   2.1330000
 133.4439408  30.5639408   5.1250000 134.2609408  30.5429408   5.6220000
 133.7179408  30.5099408   4.2090000 128.1309408  47.3219408   9.6840000
 128.1119408  48.2399408   9.4110000 127.9969408  47.3509408  10.6310000
 131.8609408  38.8709408   0.8180000 131.4729408  39.7019408   0.5460000
 132.8049408  39.0259408   0.7920000 134.0549408  50.7059408  19.8650000
 133.1819408  50.5199408  20.2090000 134.1139408  50.1809408  19.0660000
 128.7819408  44.8269408  10.5120000 127.8989408  44.6719408  10.8490000
 128.7299408  45.6859408  10.0920000 145.7759408  45.5769408  15.5950000
 146.5949408  45.4519408  15.1160000 145.8309408  44.9639408  16.3280000
 134.7319408  35.0299408   6.7360000 135.2879408  34.2539408   6.6670000
 135.2679408  35.6689408   7.2060000 134.7409408  48.3739408  28.8420000
 135.0239408  49.2489408  28.5730000 135.2609408  48.1829408  29.6220000
 134.8019408  45.4929408  16.8610000 134.9129408  46.3009408  16.3600000
 135.6729408  45.3059408  17.2110000 127.7279408  43.2519408  26.7680000
 127.4999408  42.7349408  27.5410000 128.4259408  43.8349408  27.0650000
 138.8059408  48.6449408  29.5420000 139.1739408  47.7629408  29.4910000
 139.4979408  49.2139408  29.2050000 147.4529408  42.4809408  12.6510000
 146.9679408  41.6609408  12.7380000 148.3159408  42.2169408  12.3320000
 139.8039408  40.9529408   8.8190000 140.7069408  41.2619408   8.7410000
 139.2889408  41.5889408   8.3220000 133.6759408  42.0399408   8.3110000
 132.9579408  42.4469408   8.7970000 133.3909408  41.1369408   8.1740000
 124.4319408  29.9699408   9.1520000 124.9539408  30.3289408   9.8690000
 123.7079408  30.5879408   9.0490000 123.1979408  45.2869408   7.9950000
 122.5999408  45.4139408   7.2590000 122.7259408  44.7069408   8.5910000
 133.4919408  40.2479408  15.4210000 134.1179408  40.9619408  15.5410000
 134.0109408  39.5349408  15.0460000 148.8019408  36.7519408  15.1170000
 148.5949408  36.3399408  14.2790000 147.9779408  37.1509408  15.3980000
 126.3509408  42.5299408  20.8020000 125.7639408  42.6359408  20.0530000
 126.8079408  43.3679408  20.8690000 122.1939408  32.4329408  15.0200000
 121.9859408  32.0149408  14.1840000 122.7589408  33.1699408  14.7850000
 140.3539408  31.1919408  14.3940000 141.2449408  31.0649408  14.0680000
 140.3279408  32.1089408  14.6690000 132.9529408  48.1909408   4.7110000
 132.8259408  48.4779408   5.6150000 133.8859408  48.3269408   4.5450000
 131.2079408  43.2309408   9.6310000 131.4929408  43.1859408  10.5430000
 130.4689408  43.8389408   9.6400000 125.2889408  46.5969408   1.2440000
 126.1979408  46.4009408   1.4730000 125.0949408  46.0109408   0.5130000
 125.9609408  31.2959408  10.8390000 126.7089408  31.8909408  10.8830000
 125.2019408  31.8499408  11.0230000 134.0369408  39.3019408  10.0320000
 133.0859408  39.2279408   9.9500000 134.3769408  38.5189408   9.5980000
 133.8409408  45.9929408  19.9150000 133.3829408  45.6059408  19.1690000
 134.1529408  46.8389408  19.5910000 137.9259408  43.8949408  14.1400000
 136.9729408  43.9149408  14.2200000 138.2449408  44.1439408  15.0080000
 137.9639408  34.7779408   0.3340000 137.0519408  35.0459408   0.4500000
 138.1979408  34.3589408   1.1630000 126.0819408  41.7559408   3.1260000
 125.2619408  42.2489408   3.0890000 126.7199408  42.3779408   3.4750000
 140.7849408  41.9599408  17.6010000 141.3309408  41.2469408  17.2700000
 140.9109408  42.6709408  16.9720000 136.0959408  40.7469408   9.5820000
 135.3069408  40.3579408   9.9590000 136.3329408  40.1619408   8.8630000
 131.8799408  41.9409408   3.1400000 131.5959408  41.9629408   4.0530000
 132.2839408  41.0799408   3.0340000 130.6029408  48.1769408  12.3180000
 129.6709408  48.0139408  12.4610000 130.6839408  49.1309408  12.3230000
 136.8019408  50.5669408  15.9690000 137.5409408  49.9729408  15.8380000
 136.7199408  51.0359408  15.1380000 126.3819408  33.8779408   6.2780000
 126.8239408  34.1609408   7.0780000 126.7769408  34.4079408   5.5850000
 137.8219408  40.6709408  24.7140000 137.0509408  40.2079408  24.3860000
 138.5589408  40.2549408  24.2680000 140.9929408  46.8169408   1.4860000
 141.3499408  47.6909408   1.3270000 140.4049408  46.9299408   2.2320000
 147.1529408  43.0869408  16.5300000 147.5009408  42.5009408  17.2020000
 146.4709408  42.5749408  16.0950000 148.4819408  40.9349408   9.6410000
 148.8959408  41.1749408  10.4700000 148.9019408  41.4979408   8.9910000
 134.8989408  56.5689408   8.8670000 134.8359408  56.8249408   9.7880000
 134.8469408  55.6129408   8.8800000 126.4319408  39.2409408   9.6680000
 125.6539408  39.7959408   9.6110000 126.1929408  38.4429408   9.1960000
 137.9739408  40.1959408   4.3400000 138.5639408  40.9399408   4.4650000
 138.2259408  39.5729408   5.0210000 134.5639408  41.3319408  12.5050000
 135.3129408  41.9219408  12.4160000 134.8419408  40.5249408  12.0710000
 125.8949408  49.3489408  10.4970000 125.2319408  49.5939408  11.1420000
 125.4229408  48.8129408   9.8600000 130.5329408  34.8369408  11.0850000
 130.4469408  35.5079408  10.4070000 131.3799408  35.0149408  11.4930000
 128.3729408  53.4639408  13.1860000 129.1639408  53.9339408  12.9220000
 127.6539408  53.9979408  12.8490000 128.0019408  43.8009408   4.2870000
 128.6839408  44.4149408   4.0160000 127.9259408  43.9279408   5.2330000
 128.5919408  50.0079408  11.6570000 127.6919408  49.6829408  11.6220000
 128.5009408  50.9549408  11.7650000 128.5059408  59.5499408   4.7200000
 129.2599408  59.8159408   4.1930000 128.6619408  59.9459408   5.5770000
 124.0379408  57.2559408   9.9530000 124.9729408  57.0479408   9.9550000
 123.9999408  58.1869408   9.7350000 137.8569408  35.7969408   6.3200000
 138.7739408  35.6119408   6.1180000 137.3679408  35.4069408   5.5960000
 144.8209408  37.4299408   8.6100000 144.9309408  36.7309408   7.9650000
 145.4989408  38.0679408   8.3900000 129.6499408  41.8419408   7.8760000
 130.4039408  42.2779408   8.2730000 129.2779408  41.3139408   8.5820000
 137.8409408  41.3329408  21.0730000 137.5779408  40.4969408  21.4570000
 137.0239408  41.8229408  20.9800000 136.4069408  33.6289408  19.0480000
 137.1099408  34.2789408  19.0450000 136.1969408  33.5069408  19.9740000
 131.6449408  38.1269408  23.6070000 131.9199408  37.4939408  24.2710000
 131.9309408  38.9729408  23.9510000 138.3389408  38.6359408  17.0160000
 138.1949408  39.4509408  17.4970000 139.2549408  38.4159408  17.1850000
 127.8239408  39.7049408   1.9020000 128.6989408  39.3949408   2.1340000
 127.3699408  39.7939408   2.7400000 127.4669408  39.5539408  26.4890000
 127.0789408  40.1509408  27.1290000 127.8689408  40.1279408  25.8380000
 133.4879408  38.3599408  17.7820000 132.5719408  38.4729408  18.0380000
 133.7179408  39.1799408  17.3450000 147.1329408  43.4899408   6.5760000
 146.2129408  43.7239408   6.4540000 147.5309408  44.2739408   6.9540000
 125.3919408  39.8369408  21.5440000 124.4879408  40.0839408  21.7380000
 125.8819408  40.6569408  21.5990000 135.6989408  43.6459408  21.5090000
 134.9289408  44.2119408  21.4530000 135.7449408  43.3939408  22.4310000
 125.3759408  35.8509408   4.5400000 125.9379408  36.5929408   4.3170000
 125.1269408  36.0039408   5.4520000 141.4999408  50.8909408  21.6630000
 141.5299408  51.8449408  21.5890000 141.2169408  50.5929408  20.7990000
 136.1989408  42.7839408  24.3270000 136.9519408  42.3809408  24.7590000
 135.5079408  42.1229408  24.3830000 140.3079408  42.6819408  21.5200000
 139.5659408  42.7069408  22.1230000 140.0339408  43.2229408  20.7790000
 143.5869408  41.2759408   3.3410000 142.6949408  41.6219408   3.3230000
 144.1119408  41.9439408   2.9000000 127.8799408  56.0279408  23.7110000
 128.5289408  56.2299408  23.0370000 127.0729408  55.8609408  23.2240000
 138.4169408  44.7709408  20.7260000 138.8399408  45.1919408  21.4750000
 137.5249408  44.5919408  21.0240000 134.9759408  45.1649408  23.9550000
 135.6309408  45.7189408  23.5300000 135.4869408  44.4979408  24.4130000
 140.1269408  47.4139408  17.2570000 140.8569408  48.0169408  17.1180000
 140.2649408  47.0689408  18.1390000 137.7229408  39.0149408  14.5310000
 138.2079408  39.8399408  14.5330000 137.7629408  38.7109408  15.4380000
 137.0589408  34.2909408   3.6940000 137.3229408  33.4279408   4.0130000
 136.3329408  34.1129408   3.0950000 132.1429408  43.0499408  23.4810000
 132.7959408  43.1569408  22.7890000 131.8279408  43.9369408  23.6530000
 129.2999408  34.7489408  16.6790000 128.4779408  34.7659408  16.1890000
 129.0309408  34.7099408  17.5970000 130.2849408  39.8869408  12.5980000
 130.8409408  39.1149408  12.4900000 130.1829408  39.9779408  13.5460000
 131.5199408  40.6549408  24.6330000 131.7749408  41.4879408  24.2350000
 130.7539408  40.3749408  24.1320000 148.8309408  37.2719408   2.2880000
 148.8699408  36.9779408   3.1980000 149.5399408  36.7969408   1.8530000
 132.8319408  36.0959408  25.8560000 132.2219408  36.7999408  26.0740000
 132.2899408  35.4319408  25.4300000 142.0739408  39.3869408  29.4840000
 142.9599408  39.0269408  29.4310000 141.4999408  38.6319408  29.3590000
 137.8369408  35.8009408  18.3520000 138.7399408  35.6199408  18.0890000
 137.7859408  36.7559408  18.3950000 135.8959408  49.4069408  24.8660000
 135.5879408  48.8379408  25.5710000 136.8499408  49.3899408  24.9430000
 132.3099408  47.8379408  18.4750000 131.5999408  47.7869408  17.8350000
 132.9599408  48.4099408  18.0670000 141.5769408  40.0929408  13.5580000
 140.8019408  40.5149408  13.9290000 141.6999408  40.5189408  12.7100000
 123.0429408  42.8729408  25.6090000 123.5349408  42.7249408  24.8020000
 122.7319408  42.0039408  25.8640000 134.6799408  59.2389408  26.7010000
 135.3729408  59.7719408  26.3100000 134.3379408  59.7769408  27.4150000
 125.6739408  53.6199408   0.0820000 126.0949408  53.8689408   0.9050000
 126.3839408  53.2649408  -0.4520000 123.0279408  48.2679408   1.4330000
 123.1569408  49.2159408   1.4620000 123.8729408  47.9189408   1.1520000
 125.6639408  38.1749408  18.2520000 126.2629408  37.8789408  18.9380000
 125.1889408  37.3859408  17.9920000 125.9109408  36.2639408  23.1760000
 125.8639408  35.3079408  23.1610000 125.2579408  36.5469408  22.5370000
 123.5549408  42.7819408   3.2750000 122.7219408  42.4139408   3.5720000
 123.4619408  43.7249408   3.4110000 132.0799408  32.2879408  25.6550000
 131.8949408  32.3419408  26.5920000 131.6749408  33.0719408  25.2840000
 123.4729408  39.6029408  27.1470000 123.7089408  38.7169408  26.8730000
 124.0979408  39.8149408  27.8400000 140.1159408  33.8369408  15.0270000
 140.6079408  34.5009408  14.5440000 139.2639408  33.8059408  14.5920000
 129.1499408  59.6889408  22.5040000 129.9349408  60.2339408  22.5540000
 129.1679408  59.3219408  21.6200000 130.2899408  46.9219408  26.2360000
 130.6129408  46.3839408  25.5120000 130.5349408  47.8159408  25.9980000
 125.6959408  36.5609408  27.9650000 126.2729408  36.7839408  27.2350000
 126.2299408  36.7069408  28.7460000 129.0229408  40.0999408  23.4030000
 128.3649408  40.6929408  23.7660000 128.5369408  39.3039408  23.1870000
 122.6359408  39.1879408  12.6550000 122.1249408  39.8089408  13.1730000
 121.9839408  38.6069408  12.2650000 130.1199408  31.7629408   3.4120000
 129.5699408  31.8339408   2.6310000 130.9739408  32.0939408   3.1340000
 135.5569408  55.5499408  26.2860000 134.8219408  54.9969408  26.0220000
 136.0899408  55.6339408  25.4950000 127.1549408  37.1399408  25.5410000
 126.6739408  37.0259408  24.7220000 127.2739408  38.0859408  25.6200000
 134.3109408  40.8199408  25.0000000 133.4729408  40.6859408  24.5580000
 134.6099408  39.9379408  25.2200000 144.7679408  36.0699408  17.1460000
 143.8289408  36.0299408  16.9640000 145.1819408  35.7409408  16.3480000
 125.1569408  41.4689408  15.1180000 124.3929408  41.0489408  15.5120000
 125.9069408  41.0229408  15.5130000 136.3049408  47.8459408  18.6500000
 136.4699408  48.5339408  18.0040000 136.6669408  47.0539408  18.2540000
 131.4229408  31.4139408  22.3640000 131.7979408  31.2949408  23.2370000
 132.1729408  31.6199408  21.8060000 124.3739408  32.0349408  22.5920000
 125.0449408  32.5869408  22.9950000 123.7539408  32.6539408  22.2080000
 127.8019408  46.5439408   7.0640000 127.6149408  45.6139408   7.1890000
 127.8329408  46.9049408   7.9500000 129.5459408  44.8449408  27.9910000
 129.9689408  45.6099408  27.6000000 129.0599408  45.1949408  28.7380000
 121.7749408  30.6259408  28.9360000 122.5749408  31.0719408  29.2140000
 121.1079408  31.3129408  28.9280000 132.7309408  42.2139408  18.9580000
 132.2289408  41.4239408  18.7610000 132.6519408  42.7509408  18.1690000
 123.0389408  57.9559408  28.5700000 123.2659408  57.7619408  27.6600000
 122.9049408  58.9029408  28.5870000 128.8229408  49.2789408  28.8730000
 129.0599408  48.7649408  29.6450000 128.2279408  49.9509408  29.2050000
 130.8119408  34.5099408  24.7060000 129.9129408  34.5729408  25.0290000
 130.7219408  34.4639408  23.7540000 128.1589408  41.4079408  29.5170000
 129.1069408  41.5379408  29.5250000 127.9899408  40.8219408  30.2550000
 127.4109408  38.2469408  22.5390000 127.0039408  37.3889408  22.6570000
 126.8979408  38.6629408  21.8460000 125.9589408  32.4859408  29.6520000
 125.4029408  32.4139408  30.4270000 125.4749408  32.0279408  28.9650000
 148.9339408  29.9049408  27.3680000 149.3039408  30.6489408  27.8430000
 149.4589408  29.8439408  26.5700000 138.8269408  33.5309408  22.3500000
 138.8589408  32.6169408  22.6340000 139.3369408  33.5479408  21.5400000
 133.0339408  44.4019408   3.2410000 133.4299408  44.6769408   2.4150000
 132.6019408  43.5729408   3.0360000 134.6579408  31.6439408  24.3280000
 135.2989408  31.5509408  25.0330000 133.8909408  32.0299408  24.7510000
 129.2199408  40.8319408  20.8010000 128.2959408  40.9889408  20.6070000
 129.2279408  40.5439408  21.7140000 128.1889408  47.1529408  23.5900000
 129.0689408  47.0679408  23.9560000 127.9749408  48.0809408  23.6910000
 127.2109408  38.0059408   5.3860000 126.6419408  38.7579408   5.5510000
 127.9689408  38.1489408   5.9520000 141.0649408  39.6399408   2.0140000
 141.5329408  39.0169408   2.5690000 141.5449408  39.6309408   1.1850000
 124.8949408  48.8529408   6.4910000 125.2919408  49.6979408   6.7040000
 125.4089408  48.5259408   5.7530000 120.8779408  59.1329408   1.2170000
 121.1779408  59.6449408   0.4660000 121.0379408  58.2229408   0.9670000
 126.9089408  34.5699408  15.4710000 126.4269408  35.1219408  14.8560000
 126.2819408  34.3849408  16.1700000 135.2509408  38.2789408  25.3330000
 134.5369408  37.6459408  25.4040000 135.7219408  38.2039408  26.1630000
 136.1519408  46.8349408   6.9130000 135.4469408  46.5409408   6.3350000
 135.7099408  47.0769408   7.7270000 121.6169408  39.6609408  25.2060000
 122.3259408  39.5369408  25.8370000 122.0529408  39.9679408  24.4120000
 135.4429408  30.1609408  13.2290000 136.1079408  29.5109408  13.4580000
 135.5879408  30.8799408  13.8430000 144.0269408  49.3799408  21.4100000
 144.2849408  48.4959408  21.6720000 143.1719408  49.5119408  21.8210000
 134.3959408  48.1949408  10.7400000 134.3709408  48.1429408  11.6950000
 134.2869408  47.2889408  10.4480000 125.1149408  34.0059408  26.8730000
 124.1869408  34.1409408  26.6820000 125.3489408  34.7299408  27.4530000
 124.5679408  42.7609408  23.3450000 124.5269408  43.7069408  23.4870000
 124.8839408  42.6679408  22.4460000 141.5419408  32.2789408  24.3060000
 141.1949408  32.1159408  23.4290000 141.4429408  31.4439408  24.7630000
 134.6329408  53.1429408  10.1660000 134.8209408  53.6079408   9.3500000
 134.7559408  52.2189408   9.9490000 135.3159408  42.0549408  16.3340000
 134.9349408  42.8129408  16.7780000 136.1729408  41.9419408  16.7450000
 142.2929408  47.8109408  23.8080000 142.1829408  47.0259408  24.3450000
 142.7159408  48.4419408  24.3890000 129.7159408  47.2639408   0.6440000
 130.4809408  46.8889408   0.2080000 130.0779408  47.7609408   1.3780000
 129.6429408  57.8269408  24.9720000 129.4569408  57.5769408  24.0670000
 130.3899408  58.4219408  24.9080000 127.2109408  41.8149408  24.3940000
 126.3699408  42.1359408  24.0660000 127.5599408  42.5409408  24.9100000
 120.1669408  38.8079408  20.3710000 119.8829408  38.0049408  20.8070000
 119.9809408  39.5029408  21.0020000 131.3649408  39.9299408  18.7550000
 130.7509408  39.2719408  18.4300000 131.2129408  39.9549408  19.7000000
 134.3869408  50.9349408   1.0510000 133.5169408  51.2199408   0.7720000
 134.8489408  50.7409408   0.2360000 130.7769408  39.9669408  15.3550000
 131.7099408  40.1599408  15.2610000 130.7469408  39.1889408  15.9110000
 123.5569408  37.1909408  26.0440000 124.3569408  36.6719408  26.1280000
 123.4109408  37.2549408  25.1000000 139.8279408  45.7489408  13.0870000
 140.5869408  45.7009408  13.6680000 139.2939408  44.9909408  13.3260000
 120.9909408  44.1799408  29.6390000 121.5389408  44.9439408  29.4570000
 120.9489408  44.1369408  30.5940000 131.3459408  43.1939408  28.8840000
 130.7059408  43.7409408  28.4290000 131.9039408  42.8469408  28.1880000
 148.4329408  31.3169408  17.7720000 148.3759408  30.3929408  18.0160000
 148.3789408  31.7879408  18.6040000 136.9629408  46.6139408  22.6300000
 136.8069408  47.5369408  22.8310000 137.8629408  46.5879408  22.3060000
 146.9299408  41.9079408   1.8610000 146.9209408  42.4829408   2.6270000
 147.6339408  41.2839408   2.0360000 135.8339408  33.3109408   1.4930000
 136.3929408  32.5349408   1.4550000 135.4889408  33.4019408   0.6050000
 120.8749408  33.4179408  23.9600000 120.5559408  32.5409408  23.7490000
 121.6379408  33.5389408  23.3940000 133.8929408  49.7199408  17.2500000
 133.8199408  50.5249408  16.7370000 134.7049408  49.3139408  16.9450000
 130.5189408  37.1779408  15.9270000 130.5439408  36.3239408  16.3590000
 130.1409408  36.9999408  15.0660000 135.9109408  57.6449408  20.9300000
 135.4609408  56.9469408  20.4540000 135.2979408  57.8989408  21.6190000
 135.5579408  34.1889408  26.1150000 134.8629408  34.8469408  26.1260000
 135.7909408  34.1009408  25.1910000 137.6369408  60.0739408  22.6510000
 137.4279408  59.3739408  22.0330000 137.3079408  59.7569408  23.4920000
 129.3779408  38.0839408  28.2570000 128.8019408  38.1769408  27.4980000
 130.1869408  38.5259408  28.0000000 127.9469408  37.0969408  19.7360000
 127.9239408  36.1409408  19.7090000 128.7869408  37.3059408  20.1460000
 136.8989408  59.9439408   5.6780000 136.7499408  59.2089408   6.2740000
 136.6159408  59.6199408   4.8230000 129.8299408  57.2289408   5.4010000
 128.9329408  57.4469408   5.1470000 130.3679408  57.5429408   4.6740000
 138.4289408  59.3959408  28.3290000 137.9429408  58.5779408  28.2260000
 138.7299408  59.3839408  29.2380000 121.1219408  36.0539408   9.6410000
 120.6489408  36.3209408   8.8530000 121.9209408  36.5809408   9.6320000
 131.1519408  52.9069408  20.7830000 131.1849408  51.9589408  20.9060000
 130.5209408  53.0349408  20.0740000 131.0869408  55.7069408   7.3250000
 130.8939408  56.1889408   8.1280000 130.7599408  56.2699408   6.6230000
 122.6749408  48.7829408  10.9760000 123.1839408  49.3299408  11.5740000
 123.0549408  48.9529408  10.1140000 133.9669408  45.5319408   5.7910000
 134.1179408  44.5939408   5.6770000 133.3829408  45.7699408   5.0710000
 122.1679408  34.6769408  12.0900000 121.6919408  35.0179408  11.3330000
 121.8439408  35.1909408  12.8290000 129.7219408  58.0699408   8.6160000
 129.4219408  58.0619408   7.7080000 129.1469408  58.6979408   9.0530000
 131.7279408  50.3879408  21.2710000 131.6209408  49.5149408  20.8940000
 132.3419408  50.2629408  21.9960000 148.0529408  55.8899408  12.2050000
 148.2489408  56.7309408  12.6180000 147.0989408  55.8779408  12.1250000
 133.8599408  36.7389408   2.4700000 133.0679408  37.2019408   2.1940000
 133.5509408  36.0939408   3.1060000 124.9999408  59.5199408  18.2440000
 125.1339408  59.6689408  19.1800000 124.6149408  60.3359408  17.9240000
 130.5059408  49.8669408   6.1100000 129.8559408  49.5139408   5.5030000
 129.9949408  50.3779408   6.7380000 133.0909408  35.1259408   4.6640000
 133.6829408  35.1169408   5.4160000 132.3979408  34.5079408   4.8970000
 123.3269408  54.6049408  19.3680000 124.2059408  54.2289408  19.3230000
 123.4169408  55.4729408  18.9750000 120.0379408  51.4779408   4.6990000
 120.9309408  51.1549408   4.5830000 119.4899408  50.8369408   4.2450000
 135.7609408  55.8819408   4.7460000 135.6409408  55.0999408   4.2060000
 134.9199408  55.9989408   5.1890000 134.2179408  50.3289408  13.1910000
 134.4609408  51.2159408  12.9250000 135.0449408  49.9189408  13.4450000
 137.6079408  51.4719408  21.4500000 137.1129408  52.1989408  21.8280000
 137.2049408  50.6879408  21.8230000 132.8429408  54.9729408  21.9030000
 132.4879408  54.2539408  21.3800000 133.3269408  55.5089408  21.2750000
 124.6779408  52.4899408  16.5850000 125.2769408  53.2359408  16.6160000
 125.2109408  51.7439408  16.8610000 125.7979408  51.3969408   6.7650000
 126.4539408  51.7799408   7.3470000 124.9819408  51.4349408   7.2640000
 137.4849408  57.6719408   7.7400000 136.6389408  57.2889408   7.9700000
 137.8719408  57.0489408   7.1250000 122.3099408  48.7869408   5.5240000
 121.6629408  48.6259408   6.2120000 123.1549408  48.6519408   5.9530000
 134.3059408  58.7819408   7.3720000 134.7559408  58.1469408   7.9280000
 133.9669408  58.2639408   6.6420000 144.3189408  54.7159408  14.1060000
 144.8969408  53.9829408  13.8980000 144.5489408  55.3919408  13.4680000
 126.4959408  48.9039408   2.3800000 125.9039408  49.5189408   1.9470000
 125.9969408  48.0889408   2.4350000 125.8519408  57.3879408  29.9390000
 125.2559408  57.5509408  29.2070000 125.3619408  56.8089408  30.5230000
 136.4369408  49.0669408  21.2430000 136.5039408  48.3559408  20.6060000
 135.6939408  49.5899408  20.9420000 127.2649408  53.0889408   3.3920000
 127.5729408  53.8519408   2.9040000 127.6459408  53.1919408   4.2640000
 130.3759408  53.4779408  17.1180000 129.6279408  53.2069408  17.6500000
 130.5139408  52.7509408  16.5100000 135.4449408  55.1009408  14.0140000
 136.2459408  55.2109408  13.5020000 135.0809408  54.2679408  13.7140000
 129.1669408  35.4379408   5.7480000 128.8509408  35.6709408   4.8750000
 129.4189408  34.5179408   5.6750000 124.2729408  50.1469408  12.5690000
 123.8439408  50.9559408  12.8460000 125.0339408  50.0699408  13.1450000
 123.2469408  45.4839408   3.2100000 123.6359408  46.1419408   2.6340000
 123.7999408  45.4919408   3.9910000 124.1789408  47.7809408   8.9290000
 124.2309408  48.1619408   8.0530000 123.5919408  47.0319408   8.8310000
 131.1639408  59.3629408  14.0990000 131.9599408  59.0219408  14.5070000
 130.8289408  60.0059408  14.7250000 131.2709408  59.4239408   0.7540000
 131.1439408  59.1009408  -0.1380000 130.7259408  60.2099408   0.8040000
 130.1639408  44.3359408  17.9330000 129.7059408  43.4989408  17.8530000
 130.9369408  44.2409408  17.3770000 126.7049408  54.8669408   7.0240000
 127.3139408  54.3839408   6.4660000 126.0519408  55.2189408   6.4190000
 120.7809408  47.7779408   3.0700000 121.3749408  47.8329408   3.8190000
 121.3059408  48.0689408   2.3250000 126.9129408  56.0559408  13.0170000
 126.7609408  56.9919408  13.1450000 127.8609408  55.9539408  13.1010000
 129.9689408  55.5049408  11.5150000 130.0609408  56.2039408  12.1630000
 129.5309408  55.9229408  10.7730000 132.8559408  32.0519408   9.6080000
 133.6339408  31.5559408   9.8640000 132.6389408  32.5739408  10.3800000
 130.9059408  52.2719408   1.9450000 130.8709408  51.3879408   1.5790000
 130.4339408  52.8129408   1.3120000 120.6149408  44.7429408   2.4330000
 119.9859408  45.4539408   2.5520000 121.4659408  45.1429408   2.6100000
 135.8529408  53.8829408   7.9390000 135.9139408  53.7729408   6.9900000
 136.7569408  54.0099408   8.2250000 127.6779408  45.6369408  18.2270000
 127.3809408  45.6059408  19.1360000 128.4549408  45.0779408  18.2080000
 124.3649408  52.5619408  10.9050000 123.8259408  53.0119408  11.5560000
 125.0559408  53.1889408  10.6910000 131.6299408  53.2589408  11.2250000
 131.9139408  53.2529408  10.3110000 130.9499408  53.9319408  11.2610000
 123.3079408  52.3489408  14.1740000 123.6449408  53.1049408  13.6930000
 123.8179408  52.3319408  14.9840000 140.0859408  33.0319408   1.4180000
 140.4329408  32.3479408   0.8450000 139.2249408  32.7079408   1.6830000
 148.1769408  32.4219408  20.1510000 147.3749408  32.2089408  20.6290000
 148.4289408  33.2859408  20.4760000 139.2209408  58.9019408   9.3070000
 138.6819408  59.2899408   9.9960000 138.5979408  58.6619408   8.6210000
 120.9919408  29.9949408  25.7370000 121.7769408  30.0659408  25.1940000
 121.2419408  30.3889408  26.5730000 120.7819408  46.6869408  15.9170000
 120.1779408  46.2529408  16.5200000 120.3069408  47.4619408  15.6180000
 126.7389408  54.1779408   9.9850000 126.8389408  55.0859408  10.2700000
 126.8689408  54.2079408   9.0370000 130.4329408  31.4439408  15.7220000
 130.5989408  31.4719408  16.6650000 130.7079408  32.3039408  15.4050000
 131.3089408  49.2199408  25.3400000 132.0399408  49.3309408  24.7320000
 131.4799408  49.8519408  26.0380000 123.3309408  49.3729408  18.2010000
 122.4419408  49.5659408  18.5000000 123.8949408  49.6769408  18.9110000
 146.3379408  38.5209408  14.7070000 145.9319408  39.3879408  14.7270000
 145.5999408  37.9109408  14.7000000 123.1059408  51.9459408   8.1800000
 123.4189408  52.7029408   8.6760000 122.1519408  52.0229408   8.2010000
 135.4369408  53.2539408  20.0090000 136.0059408  53.1119408  19.2530000
 135.0009408  52.4129408  20.1430000 127.0619408  51.4499408   9.2770000
 127.2629408  52.2119408   9.8210000 126.5489408  50.8769408   9.8470000
 132.4839408  56.0199408  29.2340000 132.1589408  55.9759408  30.1330000
 131.7009408  56.1619408  28.7020000 132.0659408  58.8869408   9.7040000
 131.2279408  58.5389408   9.3980000 132.5209408  59.1529408   8.9050000
 131.2699408  56.0949408  16.5260000 131.8939408  56.0249408  15.8040000
 131.2699408  55.2259408  16.9290000 133.6439408  30.4429408   1.8470000
 132.8629408  30.2199408   1.3410000 133.6489408  31.3999408   1.8730000
 123.1739408  30.5829408   4.5740000 124.1289408  30.6499408   4.5680000
 122.8779408  31.4079408   4.9580000 129.4209408  51.4549408   7.9740000
 128.8169408  51.4819408   8.7160000 130.2109408  51.8929408   8.2920000
 148.8549408  53.9129408  10.4620000 148.1329408  53.2899408  10.3720000
 148.5459408  54.5469408  11.1090000 129.8059408  45.8759408  21.7940000
 128.8959408  46.1509408  21.9020000 129.7489408  44.9669408  21.5000000
 127.9939408  51.3219408  14.6600000 128.8919408  51.3319408  14.9910000
 127.9779408  52.0019408  13.9870000 145.4639408  55.1709408   8.5830000
 144.5769408  55.4189408   8.3240000 145.9009408  54.9499408   7.7600000
 144.4759408  50.8279408  19.0240000 145.3199408  51.0919408  18.6570000
 144.7019408  50.2359408  19.7420000 128.2409408  49.7249408  25.2630000
 128.0479408  49.1849408  26.0300000 129.1959408  49.7239408  25.2030000
 132.9509408  31.3049408  12.5350000 133.5739408  30.6049408  12.7320000
 132.1069408  30.9639408  12.8300000 149.8429408  56.8959408   8.9490000
 149.2369408  56.1979408   8.6960000 150.4319408  56.4839408   9.5810000
 133.2739408  56.0209408   5.5640000 133.0779408  55.8549408   6.4860000
 132.5129408  55.6839408   5.0920000 133.9679408  53.1959408  12.7510000
 133.0609408  53.1179408  12.4530000 134.4749408  53.3119408  11.9480000
 127.9659408  53.2009408  24.6000000 128.6309408  52.7009408  24.1270000
 127.9549408  54.0549408  24.1660000 148.8189408  58.9629408  19.5480000
 149.3499408  58.7979408  20.3270000 147.9169408  58.8389408  19.8420000
 127.1999408  32.1849408  19.7970000 127.7519408  31.4189408  19.6400000
 126.4489408  31.8439408  20.2840000 136.6659408  42.2829408   1.1970000
 136.1439408  43.0379408   0.9240000 136.2319408  41.9649408   1.9890000
 131.4439408  45.8639408  23.9440000 132.0879408  46.3889408  23.4680000
 130.7859408  45.6379408  23.2870000 134.5009408  42.8519408   5.8720000
 134.3729408  42.6739408   6.8040000 133.6179408  42.8409408   5.5020000
 130.8959408  49.7499408   9.9370000 130.1039408  49.8069408  10.4710000
 131.6099408  49.9329408  10.5480000 139.0259408  44.6979408   5.6060000
 139.1789408  45.5409408   6.0320000 138.8219408  44.0999408   6.3250000
 126.7689408  58.4729408  14.2330000 127.3599408  59.2059408  14.4070000
 125.9639408  58.6979408  14.6990000 129.7699408  52.6009408  26.6800000
 129.2829408  52.6389408  25.8560000 129.7329408  53.4939408  27.0220000
 147.3529408  30.3099408  12.8330000 147.5099408  29.6729408  13.5300000
 147.9369408  31.0399408  13.0390000 132.1129408  48.3489408   7.7370000
 131.7449408  48.5769408   8.5910000 131.5649408  48.8179408   7.1070000
 144.6629408  49.5749408  12.4850000 144.9049408  48.8659408  13.0800000
 144.1909408  49.1409408  11.7740000 121.4539408  59.7109408  15.8930000
 121.4329408  60.6619408  16.0040000 122.2849408  59.5399408  15.4500000
 126.8329408  50.5419408  17.8900000 127.4509408  49.8449408  17.6710000
 126.2749408  50.1639408  18.5700000 145.2199408  44.8659408   1.3530000
 145.3179408  44.0859408   0.8060000 144.4369408  45.3009408   1.0120000
 138.8679408  57.6099408   3.3490000 139.7269408  57.3279408   3.6620000
 138.2529408  57.2769408   4.0020000 128.3579408  34.1779408   1.8600000
 128.4489408  34.8209408   2.5630000 127.5369408  33.7239408   2.0540000
 131.2019408  58.7629408   3.4690000 131.2119408  59.5939408   3.9450000
 131.6049408  58.9659408   2.6240000 130.2109408  58.4339408  11.9620000
 131.0079408  58.2959408  11.4500000 130.5229408  58.6039408  12.8510000
 137.3879408  52.3639408  27.4260000 137.6389408  52.8729408  28.1970000
 138.1209408  52.4709408  26.8190000 121.6809408  58.4499408   7.5820000
 122.3499408  57.9409408   7.1260000 120.8959408  57.9039408   7.5440000
 145.9239408  52.7609408  13.2040000 145.7279408  52.7439408  12.2670000
 146.0819408  51.8459408  13.4340000 139.3099408  56.6769408  14.0320000
 139.6109408  56.8749408  14.9190000 139.3619408  55.7229408  13.9680000
 123.3539408  54.7089408   9.0660000 123.7559408  55.5449408   9.3010000
 122.5179408  54.9489408   8.6650000 121.4129408  56.7549408   0.3960000
 122.1889408  57.0679408  -0.0690000 121.2349408  55.8959408   0.0140000
 149.6089408  57.8679408  15.3230000 150.1049408  57.1339408  14.9590000
 150.2649408  58.5469408  15.4810000 142.3659408  44.6299408   8.6880000
 141.7399408  44.6659408   9.4110000 143.1379408  45.0919408   9.0160000
 121.5119408  49.0599408  13.6060000 120.8219408  49.4449408  13.0660000
 122.0049408  48.5029408  13.0030000 123.9449408  56.8669408  18.1460000
 123.7629408  56.8199408  17.2080000 124.4529408  57.6719408  18.2510000
 133.2799408  52.0519408  15.6120000 132.3279408  51.9589408  15.6370000
 133.5199408  51.8259408  14.7140000 132.9559408  51.3659408   6.3640000
 133.4859408  51.8059408   5.6990000 132.4029408  50.7609408   5.8690000
 123.4409408  36.1809408   1.9050000 124.0029408  36.8479408   1.5100000
 123.9759408  35.7989408   2.6010000 137.0119408  53.5979408   0.0990000
 137.4669408  54.3679408   0.4400000 136.1409408  53.9179408  -0.1370000
 127.1949408  52.4749408  28.1130000 126.6079408  52.3649408  27.3650000
 128.0739408  52.3999408  27.7400000 138.2589408  42.5979408   7.4360000
 137.7069408  41.9699408   6.9700000 137.6589408  43.0499408   8.0290000
 120.1369408  33.5589408   5.8370000 119.9919408  32.6449408   5.5950000
 120.0729408  33.5669408   6.7920000 135.3399408  50.8529408  28.1340000
 134.7079408  51.5289408  27.8920000 136.1799408  51.1839408  27.8140000
 139.9039408  30.2909408  26.3150000 139.3069408  30.0529408  27.0240000
 140.2959408  31.1169408  26.5980000 146.3759408  53.1479408  22.1470000
 145.9069408  53.8409408  21.6830000 147.2419408  53.1299408  21.7400000
 128.6959408  34.9359408  26.2190000 128.5659408  34.8349408  27.1620000
 127.9669408  35.4869408  25.9330000 125.0549408  30.9999408  27.6170000
 125.2369408  31.8089408  27.1400000 124.9239408  30.3429408  26.9330000
 132.6159408  52.0489408  24.5270000 132.7129408  51.7699408  25.4380000
 133.1399408  51.4229408  24.0270000 124.7479408  56.4299408   2.0810000
 124.8309408  55.7089408   2.7050000 123.9279408  56.8609408   2.3190000
 129.2759408  56.4629408  14.7030000 129.7309408  56.2569408  15.5190000
 129.1089408  57.4049408  14.7520000 143.3719408  59.3539408  16.9710000
 143.3079408  58.3989408  16.9860000 142.9949408  59.6059408  16.1290000
 136.2559408  53.4489408  22.4580000 135.9049408  53.5529408  21.5740000
 135.4959408  53.5559408  23.0320000 126.9949408  45.9949408  20.7340000
 126.4209408  45.7369408  21.4560000 126.9939408  46.9519408  20.7580000
 136.4109408  57.9309408  16.0400000 136.7929408  58.4529408  16.7440000
 136.9819408  58.0879408  15.2870000 134.1419408  54.1589408  24.0840000
 133.6309408  53.3779408  24.2940000 133.5819408  54.6599408  23.4910000
 133.5379408  46.9969408  22.3460000 134.1009408  46.3869408  22.8230000
 133.4289408  46.5979408  21.4830000 133.4829408  49.4799408  23.5240000
 133.6019408  48.6709408  23.0260000 134.1959408  49.4769408  24.1620000
 125.5179408  50.8639408   0.6340000 124.6129408  50.9029408   0.3240000
 125.8689408  51.7369408   0.4600000 123.9199408  53.7329408  27.9040000
 123.7749408  52.7969408  27.7640000 124.6069408  53.7729408  28.5690000
 143.3409408  55.3679408  26.2690000 143.8739408  55.7849408  25.5910000
 142.6439408  55.9989408  26.4470000 141.0999408  57.1969408  26.2780000
 140.7519408  57.3389408  25.3980000 141.3499408  58.0699408  26.5810000
 134.6979408  55.7839408  19.6430000 134.8279408  55.7939408  18.6940000
 134.6369408  54.8559408  19.8670000 131.6579408  59.4879408  25.1230000
 131.5199408  60.2759408  25.6490000 132.5939408  59.3049408  25.2060000
 125.6269408  55.5319408  22.0670000 126.1349408  55.9269408  21.3580000
 125.2669408  54.7309408  21.6870000 128.4599408  32.5539408  24.9290000
 128.0919408  31.8119408  25.4080000 128.4689408  33.2689408  25.5650000
 123.5699408  50.9729408  27.9310000 122.6959408  50.8599408  27.5580000
 124.1639408  50.6609408  27.2500000 144.5209408  47.0009408  22.3890000
 145.1209408  46.3069408  22.6620000 143.6929408  46.7869408  22.8180000
 131.6979408  50.0789408  29.7730000 130.8099408  49.8989408  29.4640000
 132.0089408  49.2409408  30.1130000 130.6369408  51.0749408  15.7480000
 131.0509408  50.3259408  16.1760000 130.8889408  50.9959408  14.8280000
 127.8009408  47.6069408  26.9660000 127.9509408  48.0929408  27.7770000
 128.6709408  47.3129408  26.6970000 134.6939408  57.6009408  29.4540000
 133.7959408  57.3609408  29.6810000 134.6029408  58.1929408  28.7070000
 134.6019408  58.8039408  23.5100000 135.1489408  58.3629408  24.1610000
 134.6489408  59.7299408  23.7450000 128.0119408  55.6129408  29.1090000
 127.3469408  55.9979408  29.6800000 127.5689408  55.4959408  28.2690000
 137.2359408  55.8399408  24.2300000 137.9919408  55.7569408  23.6490000
 136.6439408  55.1399408  23.9550000 136.3829408  55.0279408  16.5230000
 135.9809408  54.9789408  15.6560000 136.6939408  55.9299408  16.5930000
 119.8979408  55.6919408  22.9550000 119.7849408  54.8959408  23.4740000
 120.8379408  55.7319408  22.7780000 128.7329408  55.2859408   2.7840000
 129.4529408  55.3559408   2.1580000 128.2929408  56.1349408   2.7390000
 146.7709408  33.6649408  22.7270000 146.7729408  32.8369408  23.2070000
 147.3549408  34.2339408  23.2270000 125.4859408  47.0279408  25.4590000
 125.3769408  46.1209408  25.7470000 126.3439408  47.2849408  25.7970000
 129.9189408  33.5539408  21.8240000 129.1149408  33.4609408  22.3350000
 130.5089408  32.8899408  22.1800000 131.3379408  58.9519408  27.8980000
 130.3879408  58.9459408  27.7800000 131.6909408  58.7969408  27.0220000
 128.4839408  42.6569408  12.7750000 128.7579408  43.2109408  12.0450000
 129.2489408  42.1129408  12.9640000 124.8689408  52.0059408   4.4930000
 125.4839408  52.3369408   3.8380000 125.3879408  51.9349408   5.2950000
 121.1839408  53.8679408   2.2820000 121.7039408  53.3719408   1.6500000
 121.6219408  53.7219408   3.1200000 121.2759408  50.9209408  22.3260000
 121.5259408  50.2529408  21.6880000 121.9619408  51.5849408  22.2600000
 127.4129408  56.2019408  20.0570000 127.4249408  56.6489408  19.2110000
 128.2419408  56.4469408  20.4690000 130.8449408  32.1909408  28.1290000
 129.9649408  31.9919408  27.8090000 130.7209408  32.4099408  29.0520000
 132.1609408  51.0939408  27.1720000 131.3539408  51.5889408  27.0280000
 132.4389408  51.3399408  28.0540000 141.6459408  55.8579408  19.2480000
 141.8839408  55.4889408  18.3980000 141.1379408  55.1669408  19.6750000
 121.9099408  56.0429408  26.4380000 121.0299408  56.3809408  26.2760000
 121.8099408  55.4669408  27.1960000 146.5009408  53.4099408   3.8900000
 147.2679408  53.2959408   3.3290000 146.1529408  54.2679408   3.6490000
 132.1069408  58.3369408  22.1520000 132.8629408  58.3479408  22.7390000
 131.9139408  59.2609408  21.9920000 126.9049408  59.6589408  24.4020000
 127.4049408  59.1249408  25.0190000 127.5369408  59.8999408  23.7250000
 135.8789408  32.1039408  21.6990000 135.5149408  31.9559408  22.5720000
 136.7829408  31.7959408  21.7610000 128.8949408  51.6709408  19.8570000
 128.2309408  51.5909408  19.1720000 128.9859408  50.7849408  20.2080000
 139.3409408  49.3989408  20.3370000 139.0289408  49.1119408  19.4790000
 138.5439408  49.5879408  20.8320000 134.5349408  33.3569408  28.7370000
 134.1719408  32.4879408  28.5610000 135.0539408  33.5609408  27.9590000
 137.1019408  45.7249408  25.9070000 137.7749408  46.4049408  25.8650000
 136.2939408  46.1989408  26.1020000 133.0649408  31.5539408  20.0000000
 133.9649408  31.6039408  20.3230000 132.9399408  30.6309408  19.7800000
 128.2529408  31.2669408  28.1430000 127.5959408  31.4079408  28.8250000
 128.1889408  30.3329408  27.9390000 130.1359408  52.0139408  23.1660000
 130.2959408  52.4989408  22.3560000 130.9959408  51.9489408  23.5810000
 138.4869408  38.0279408   1.6070000 139.1999408  38.3819408   2.1380000
 138.0509408  38.7999408   1.2450000 135.1319408  47.2609408  26.3960000
 135.2409408  47.6919408  27.2440000 134.5449408  46.5269408  26.5740000
 127.2789408  56.4109408  26.2950000 126.3539408  56.2849408  26.0820000
 127.7199408  56.4259408  25.4460000 134.4529408  50.9099408   3.7780000
 134.3679408  50.7669408   2.8350000 135.0229408  50.2019408   4.0770000
 127.1399408  57.5469408  17.6840000 126.8289408  57.2759408  16.8200000
 126.5409408  58.2459408  17.9460000 145.0939408  33.0129408  25.4040000
 144.7599408  32.6939408  24.5660000 145.6369408  32.2969408  25.7340000
 135.7979408  58.7229408   3.2530000 135.6619408  57.7969408   3.0530000
 135.1299408  59.1799408   2.7420000 129.0859408  31.1759408   1.1750000
 128.4019408  30.5059408   1.1510000 128.6729408  31.9539408   0.8020000
 128.0329408  59.1679408  10.5370000 128.6119408  58.8459408  11.2270000
 127.5109408  59.8489408  10.9610000 132.8329408  46.8609408  13.8650000
 132.4649408  45.9809408  13.9370000 132.1939408  47.3459408  13.3420000
 128.4229408  58.5869408  27.7970000 128.0969408  58.0029408  27.1120000
 128.0209408  58.2599408  28.6020000 133.1219408  45.2349408  26.3590000
 132.9999408  44.2859408  26.3360000 133.2029408  45.4879408  25.4390000
 125.5019408  30.1759408  20.8970000 125.1519408  30.8029408  21.5300000
 125.3639408  29.3209408  21.3060000 134.6709408  37.7959408   5.3550000
 135.3629408  37.6749408   4.7050000 134.3999408  36.9069408   5.5840000
 132.2429408  36.3459408   7.8770000 133.0639408  35.9189408   7.6340000
 131.5769408  35.9019408   7.3520000 130.7739408  36.2109408  29.9660000
 131.1209408  36.8889408  30.5450000 130.1539408  36.6719408  29.4000000
 144.9609408  45.1169408   6.4150000 144.0719408  45.3439408   6.1410000
 145.4919408  45.8699408   6.1570000 139.3769408  37.5459408  12.7920000
 139.5639408  37.9789408  11.9590000 138.9799408  38.2279408  13.3340000
 149.9389408  42.9329408  20.1570000 149.2409408  43.5489408  19.9330000
 149.5489408  42.0699408  20.0180000 143.4369408  38.0999408  14.6000000
 143.0629408  38.4679408  13.7990000 143.0709408  37.2169408  14.6520000
 147.4789408  33.9939408  10.6530000 147.3369408  34.2939408   9.7560000
 147.7139408  33.0699408  10.5640000 143.8419408  37.9109408  11.1330000
 143.2649408  38.4849408  10.6300000 144.5029408  37.6239408  10.5030000
 144.1399408  31.3499408  10.9420000 143.2239408  31.4689408  11.1920000
 144.1099408  30.7419408  10.2040000 142.8249408  51.8459408  29.9020000
 143.1099408  51.1609408  30.5080000 143.3979408  51.7459408  29.1420000
 120.0609408  36.7279408  17.5830000 120.7789408  37.3319408  17.7720000
 119.7179408  37.0209408  16.7390000 139.3879408  42.0239408   1.7080000
 138.4449408  42.1189408   1.5730000 139.5609408  41.0969408   1.5410000
 138.6229408  34.8899408  12.5080000 139.1929408  34.4829408  11.8550000
 138.9969408  35.7609408  12.6440000 148.2209408  53.3229408  14.8680000
 147.5639408  53.4529408  14.1850000 149.0359408  53.1649408  14.3900000
 147.7609408  32.7849408   3.9490000 148.2159408  32.0179408   3.6010000
 147.0409408  32.9349408   3.3370000 135.8699408  37.0169408   0.6600000
 135.2029408  36.8519408   1.3270000 136.4569408  37.6569408   1.0610000
 139.5339408  47.2399408  26.6460000 140.2919408  46.8729408  26.1910000
 139.5379408  46.8119408  27.5020000 145.9399408  35.4359408  14.7680000
 146.1589408  35.8389408  13.9280000 145.7629408  34.5199408  14.5560000
 145.4509408  36.9699408   5.4990000 144.8859408  36.2069408   5.3780000
 145.7639408  37.1789408   4.6180000 120.4629408  52.8909408  13.2580000
 120.2129408  51.9829408  13.0880000 121.3599408  52.8359408  13.5870000
 134.7979408  41.2589408  20.4950000 134.1209408  41.7319408  20.0110000
 135.3779408  41.9449408  20.8280000 138.4659408  53.8039408   9.1880000
 138.8379408  54.6159408   8.8460000 138.9149408  53.1109408   8.7040000
 136.7079408  37.0059408   3.8860000 137.1969408  37.5149408   3.2390000
 136.7849408  36.0999408   3.5860000 125.6159408  33.9159408  17.9620000
 126.1299408  33.4149408  18.5940000 125.1099408  33.2559408  17.4870000
 145.2969408  35.6169408  19.7390000 146.1719408  35.2819408  19.5430000
 144.9219408  35.8239408  18.8830000 130.5079408  37.1349408  20.9140000
 131.3479408  36.7929408  20.6060000 130.6289408  37.2549408  21.8560000
 125.4309408  38.9249408  13.3460000 124.5449408  38.8439408  13.6980000
 125.4069408  39.7229408  12.8170000 149.5329408  30.6999408   3.3760000
 150.1959408  30.7629408   2.6890000 149.1429408  29.8339408   3.2540000
 139.1209408  41.3209408  13.8360000 138.7309408  41.3989408  12.9650000
 138.7629408  42.0599408  14.3270000 143.4509408  46.6139408  17.9200000
 143.0099408  47.2459408  17.3520000 142.8429408  46.4799408  18.6470000
 121.2429408  55.3819408  11.0890000 121.8839408  54.7989408  10.6820000
 120.4409408  54.8619408  11.1370000 120.5589408  33.4369408   2.1060000
 120.9039408  33.9419408   1.3700000 119.6199408  33.3699408   1.9320000
 145.4529408  53.0009408   6.3470000 146.1639408  52.5919408   6.8410000
 145.8259408  53.1649408   5.4810000 139.8289408  42.1619408   4.8400000
 140.2879408  42.3219408   5.6640000 139.5549408  43.0299408   4.5450000
 138.0169408  37.0069408  27.2190000 137.3259408  36.5609408  27.7080000
 138.0999408  36.5049408  26.4080000 145.5609408  41.1319408  15.4750000
 145.1189408  40.5969408  16.1340000 144.8589408  41.6419408  15.0700000
 121.6959408  44.5629408   5.6540000 121.0739408  44.5129408   4.9270000
 121.7619408  43.6639408   5.9750000 146.7429408  33.6139408  17.8620000
 146.4659408  34.0829408  17.0750000 146.0469408  32.9769408  18.0200000
 141.6259408  49.4869408   1.2030000 142.4039408  49.0829408   1.5860000
 141.3859408  50.1789408   1.8190000 139.8959408  37.7829408  29.2340000
 139.4559408  37.5179408  28.4260000 139.2739408  37.5689408  29.9280000
 149.2179408  53.7659408   5.8380000 149.3659408  54.3189408   5.0710000
 149.4309408  52.8809408   5.5410000 141.2669408  30.7559408   8.5830000
 141.3999408  31.0999408   9.4660000 140.5919408  30.0849408   8.6870000
 144.1839408  34.4299408  29.2750000 143.9199408  35.0219408  28.5710000
 143.4349408  34.4179408  29.8720000 147.0209408  30.6149408  23.3560000
 146.1119408  30.3729408  23.1770000 147.4589408  29.7839408  23.5400000
 147.0549408  50.3509408  13.5330000 146.2059408  50.0659408  13.1960000
 147.4329408  49.5649408  13.9270000 143.3629408  35.0449408  11.8150000
 143.7649408  35.8809408  11.5770000 144.1039408  34.4649408  11.9930000
 144.9759408  31.0289408  20.1130000 144.6729408  31.3969408  19.2830000
 144.4759408  31.4979408  20.7810000 142.5319408  53.9129408  16.2690000
 143.3199408  53.8259408  16.8050000 142.8589408  54.0669408  15.3830000
 146.3219408  37.4929408  23.9420000 146.3019408  36.7529408  24.5480000
 147.1049408  37.9849408  24.1900000 120.1739408  41.8329408  11.6060000
 120.4409408  41.6049408  12.4960000 120.8999408  42.3529408  11.2630000
 145.7369408  49.1459408   8.1800000 144.8499408  49.1279408   8.5390000
 146.1869408  48.4239408   8.6170000 136.6539408  39.5689408   7.1000000
 136.2859408  39.1019408   6.3490000 137.5579408  39.2609408   7.1550000
 138.3429408  55.7469408   6.0430000 138.8659408  54.9999408   5.7510000
 137.5969408  55.7659408   5.4440000 124.7929408  55.8129408   5.2480000
 124.3529408  56.6369408   5.4600000 124.0799408  55.1949408   5.0880000
 143.2419408  53.1659408  10.4920000 142.9709408  53.7249408   9.7630000
 142.5509408  52.5069408  10.5570000 145.7379408  56.5139408  16.0000000
 145.5399408  55.6189408  15.7260000 144.8859408  56.8929408  16.2160000
 120.0309408  36.3349408   7.2890000 119.4529408  35.8939408   6.6650000
 120.7089408  36.7369408   6.7450000 125.4109408  31.6389408  14.1010000
 126.3529408  31.5459408  13.9540000 125.1199408  32.2449408  13.4200000
 140.9789408  41.3509408  28.1040000 141.4849408  40.7389408  28.6380000
 141.4719408  41.4199408  27.2860000 132.0409408  33.7889408   0.3090000
 131.4489408  34.5119408   0.1020000 132.7159408  33.8299408  -0.3690000
 144.4599408  32.0869408  17.5660000 144.6979408  32.1839408  16.6440000
 143.9199408  31.2969408  17.5930000 128.5499408  34.3989408  19.4280000
 129.1569408  34.0959408  20.1040000 127.8149408  33.7869408  19.4750000
 147.6739408  37.2299408  28.4930000 148.1929408  38.0039408  28.2730000
 147.5139408  36.7999408  27.6530000 141.2339408  31.7299408  11.0500000
 141.0569408  31.7479408  11.9900000 141.0979408  32.6329408  10.7630000
 142.1169408  36.2239408  16.4610000 141.5759408  36.8179408  16.9810000
 141.6809408  36.1839408  15.6100000 137.0459408  39.7769408  30.0950000
 136.9329408  40.7139408  30.2500000 137.3599408  39.7189408  29.1920000
 147.9949408  31.5439408   9.2960000 147.6689408  30.7739408   9.7610000
 147.5859408  31.4939408   8.4320000 124.1849408  49.2609408  15.5620000
 123.2749408  49.4589408  15.3410000 124.2369408  49.3929408  16.5080000
 141.5719408  46.0879408  19.4610000 141.2589408  46.5549408  20.2350000
 142.0279408  45.3219408  19.8100000 144.5889408  42.8039408  18.0590000
 145.3309408  42.2919408  17.7360000 144.9889408  43.5189408  18.5550000
 122.6959408  34.0899408  21.8710000 122.3059408  33.5869408  21.1560000
 122.9999408  34.8979408  21.4560000 149.8669408  52.4849408  23.7190000
 150.5199408  52.0109408  23.2050000 149.1229408  52.5889408  23.1250000
 142.9719408  59.7709408   6.6800000 142.3179408  60.1079408   7.2920000
 143.6439408  59.3789408   7.2390000 132.1399408  37.4559408  12.2220000
 133.0799408  37.4309408  12.0430000 131.9669408  36.6499408  12.7080000
 142.2569408  42.3619408  11.4830000 141.7519408  43.1539408  11.2990000
 142.2079408  41.8529408  10.6740000 147.9939408  38.9349408  18.7130000
 148.8849408  38.7869408  19.0320000 147.4419408  38.4079408  19.2910000
 145.9349408  51.0989408  28.9360000 145.4299408  51.0179408  28.1280000
 146.4369408  51.9069408  28.8260000 122.6369408  38.9269408   8.6340000
 123.0599408  39.1289408   9.4690000 121.7709408  39.3279408   8.7010000
 121.9669408  38.2519408  18.4270000 122.8179408  38.6559408  18.5950000
 121.4089408  38.5619408  19.1400000 147.5039408  35.9579408  12.6760000
 147.6349408  35.1329408  12.2080000 147.4329408  36.6169408  11.9850000
 126.0659408  33.5049408   3.3350000 125.7129408  34.3689408   3.5490000
 125.3759408  33.0859408   2.8200000 140.1629408  33.2489408   7.1740000
 140.7889408  32.6829408   7.6270000 139.4289408  33.3299408   7.7820000
 136.8479408  59.6619408  10.6200000 136.3209408  59.0759408  11.1630000
 136.2789408  59.8849408   9.8840000 125.8869408  40.2809408   5.3640000
 125.6359408  40.8369408   6.1020000 125.8729408  40.8659408   4.6070000
 142.0509408  57.8479408  21.3780000 142.2919408  57.3129408  20.6220000
 142.4079408  58.7149408  21.1820000 146.0049408  58.4509408  20.5770000
 145.3879408  57.8689408  20.1320000 145.6789408  59.3319408  20.3920000
 135.9519408  45.9449408   0.6750000 135.0699408  45.6069408   0.8280000
 136.3909408  45.2529408   0.1800000 142.1649408  37.7679408   8.6350000
 143.0789408  37.4839408   8.6030000 142.1279408  38.5239408   8.0490000
 144.3869408  40.8979408   7.2380000 144.6949408  41.3449408   8.0260000
 145.0989408  41.0059408   6.6070000 140.4669408  57.5979408  16.5020000
 140.0149408  58.4079408  16.7400000 139.9129408  56.9009408  16.8520000
 137.1799408  54.4859408  11.5940000 137.1339408  54.0919408  10.7230000
 137.8769408  55.1389408  11.5260000 147.1109408  37.9229408  10.7590000
 146.6699408  38.6599408  11.1820000 147.2859408  38.2279408   9.8680000
 144.4309408  38.2329408   0.1660000 144.9999408  38.8329408  -0.3160000
 144.9499408  37.9689408   0.9260000 147.6649408  47.8339408  20.4340000
 147.0099408  47.9209408  21.1270000 147.7929408  48.7259408  20.1110000
 140.4459408  35.7249408   5.9510000 140.6899408  34.9389408   6.4390000
 141.2809408  36.0999408   5.6680000 124.0989408  47.2339408  20.9040000
 123.5579408  47.6299408  20.2210000 124.7849408  47.8809408  21.0720000
 143.0409408  55.6989408   7.7480000 142.2169408  56.1149408   7.4950000
 143.0589408  54.8799408   7.2530000 135.0709408  33.1099408  11.9730000
 135.9309408  32.7019408  11.8700000 134.5769408  32.4959408  12.5170000
 121.2549408  36.8109408  14.1630000 120.3669408  36.7379408  14.5100000
 121.5479408  37.6809408  14.4330000 121.2039408  48.3319408   8.1590000
 121.7869408  48.4599408   8.9080000 120.4139408  47.9419408   8.5330000
 130.8509408  48.0429408  20.5640000 131.5169408  47.8769408  19.8970000
 130.6929408  47.1879408  20.9640000 145.3289408  43.5029408  11.5810000
 145.0329408  44.2309408  12.1270000 146.1189408  43.1829408  12.0170000
 147.1119408  57.8559408  14.3000000 146.6299408  57.3489408  14.9530000
 148.0099408  57.8809408  14.6300000 144.7879408  32.1149408   5.8990000
 144.1839408  31.3719408   5.9120000 145.6579408  31.7159408   5.9040000
 139.4179408  45.1679408  16.0930000 140.2329408  44.6729408  16.0060000
 139.6999408  46.0539408  16.3210000 147.7659408  43.5989408   3.8470000
 147.7389408  43.8419408   4.7720000 147.9009408  44.4269408   3.3850000
 125.1689408  44.5189408  16.3780000 125.8409408  44.4369408  17.0540000
 124.4199408  44.9079408  16.8290000 142.8469408  44.3839408  29.2860000
 143.0729408  45.2939408  29.4810000 142.3399408  44.4319408  28.4760000
 144.5049408  33.7859408   8.3370000 144.6659408  33.1259408   7.6630000
 145.3689408  33.9629408   8.7110000 147.8919408  45.9599408   1.8140000
 147.0629408  45.4949408   1.6950000 148.2699408  46.0039408   0.9360000
 141.4209408  35.9589408  13.7260000 140.7449408  36.4539408  13.2630000
 142.0389408  35.6999408  13.0420000 124.4059408  40.8699408   1.0480000
 123.6999408  41.4429408   1.3470000 125.1239408  41.0339408   1.6600000
 137.9489408  47.1749408  11.2960000 137.9059408  46.2389408  11.0990000
 138.8179408  47.2979408  11.6800000 145.4809408  41.9639408   9.4060000
 145.1199408  42.5119408  10.1030000 146.2799408  41.5939408   9.7810000
 147.2379408  34.9699408   8.0610000 147.3909408  35.8909408   8.2740000
 147.5609408  34.8749408   7.1650000 144.1389408  38.9709408  24.3760000
 143.4629408  38.4299408  23.9690000 144.9209408  38.4189408  24.3760000
 136.7859408  48.4209408   1.6810000 136.7219408  47.5299408   1.3370000
 137.4129408  48.8559408   1.1040000 142.8489408  43.5719408  19.9600000
 143.5609408  43.2709408  19.3950000 142.1069408  43.0129408  19.7290000
 143.2589408  30.4689408  14.2250000 143.7039408  29.7619408  13.7580000
 143.9489408  31.1049408  14.4120000 128.5139408  48.9249408   4.6940000
 128.4449408  47.9949408   4.9100000 127.8739408  49.0569408   3.9950000
 120.9149408  42.1979408   3.5130000 120.7669408  42.8599408   2.8380000
 120.2449408  41.5339408   3.3490000 136.2619408  35.6629408  11.8050000
 137.1559408  35.3529408  11.9450000 135.7269408  34.8699408  11.8260000
 145.2609408  32.5219408  15.1500000 146.1599408  32.1979408  15.2140000
 145.1129408  32.6349408  14.2110000 146.0369408  39.7699408  12.4210000
 146.3529408  39.1019408  13.0300000 145.0999408  39.8379408  12.6050000
 143.0209408  38.4339408   3.5050000 143.2149408  39.3699408   3.4500000
 143.4379408  38.1499408   4.3190000 138.3969408  31.7669408   4.5070000
 138.1719408  31.0319408   5.0770000 139.3529408  31.8069408   4.5340000
 147.9889408  39.2129408  25.4190000 148.5799408  39.2639408  26.1700000
 147.4759408  40.0199408  25.4620000 149.4079408  50.4649408  12.4830000
 148.5159408  50.4729408  12.8300000 149.2959408  50.4509408  11.5330000
 139.9099408  38.3669408  10.0660000 139.9099408  39.2509408   9.6990000
 140.6139408  37.9149408   9.6030000 142.6919408  41.3699408  26.1520000
 142.7639408  40.5559408  25.6530000 143.5839408  41.5479408  26.4510000
 142.3429408  47.8229408  13.7280000 142.4789408  48.5569408  14.3260000
 141.4959408  47.9999408  13.3180000 138.5539408  48.9259408  24.6820000
 138.7939408  48.2999408  25.3660000 139.3529408  49.4279408  24.5250000
 120.9789408  41.7839408   6.4660000 120.8059408  41.5689408   5.5490000
 120.8379408  40.9619408   6.9360000 138.5449408  36.2349408   8.9460000
 138.6869408  36.3049408   8.0020000 138.8589408  37.0669408   9.2990000
 137.5829408  32.1169408  11.6990000 137.5359408  31.9249408  12.6360000
 137.4419408  31.2719408  11.2740000 143.0879408  36.0449408   2.2860000
 143.1179408  36.9629408   2.5550000 142.5769408  36.0479408   1.4770000
 139.4299408  59.0179408   0.8690000 140.3869408  59.0099408   0.8630000
 139.1899408  58.4979408   1.6360000 143.0929408  34.5809408  26.6170000
 143.7929408  34.1529408  26.1250000 142.4559408  34.8409408  25.9520000
 149.4029408  51.3029408  16.8030000 149.1189408  52.1149408  16.3830000
 150.2919408  51.4879408  17.1050000 127.9229408  30.9289408   7.0610000
 128.3859408  31.4039408   7.7510000 127.6119408  31.6119408   6.4670000
 146.0629408  36.2019408   2.8730000 146.7759408  36.4759408   2.2960000
 145.4759408  35.7009408   2.3070000 145.4119408  50.8149408   1.5320000
 145.4999408  50.9999408   0.5970000 146.2239408  50.3649408   1.7650000
 148.3659408  35.4669408  19.3010000 148.8039408  35.9929408  18.6320000
 148.0599408  34.6899408  18.8330000 133.7059408  30.8079408  28.7940000
 132.8089408  30.6749408  29.0990000 134.2449408  30.6919408  29.5770000
 140.9419408  34.3839408  17.7550000 140.5819408  33.9059408  17.0080000
 141.5239408  35.0359408  17.3640000 139.5519408  43.4549408  29.3200000
 139.6209408  42.9329408  30.1200000 139.9389408  42.9039408  28.6400000
 149.4049408  39.7769408   1.2160000 149.7829408  39.6169408   0.3520000
 148.8879408  38.9919408   1.4010000 143.8139408  46.7889408  29.7140000
 143.7769408  47.3819408  30.4640000 144.6549408  46.9789408  29.2980000
 122.6029408  46.3849408  27.6050000 122.3689408  46.0419408  26.7430000
 123.5349408  46.1849408  27.6980000 141.4199408  43.2069408  24.2540000
 141.6209408  42.3409408  24.6100000 141.2789408  43.0559408  23.3200000
 144.3839408  46.4509408  26.5200000 144.4989408  47.3369408  26.1780000
 144.0379408  46.5779408  27.4040000 149.1759408  40.3779408  22.4850000
 148.2839408  40.5879408  22.2080000 149.0939408  40.1619408  23.4140000
 147.5159408  41.6489408  18.8270000 147.5849408  40.6959408  18.7670000
 147.6049408  41.8379408  19.7610000 148.1189408  43.0759408  23.9840000
 148.7619408  42.6759408  24.5710000 147.4529408  43.4369408  24.5690000
 120.9759408  43.9229408  26.7960000 121.2779408  44.0099408  27.7000000
 121.7439408  43.6149408  26.3150000 144.1129408  31.7349408  28.1150000
 144.7809408  31.4299408  27.5010000 144.4059408  32.6089408  28.3730000
 141.7639408  43.3609408   2.3840000 141.7739408  43.7069408   1.4920000
 140.9559408  42.8499408   2.4340000 120.6829408  34.4809408  26.5800000
 120.8219408  34.3349408  25.6450000 120.8769408  35.4089408  26.7100000
 148.0309408  55.7699408   0.2010000 147.6519408  56.3839408  -0.4290000
 148.7909408  56.2309408   0.5560000 122.9169408  40.2559408  22.9200000
 122.3259408  40.8239408  22.4250000 123.4999408  40.8599408  23.3800000
 141.1939408  34.9999408  24.4080000 140.3499408  35.2639408  24.7730000
 141.2559408  34.0639408  24.5980000 146.5439408  35.5789408  25.9390000
 145.8209408  34.9659408  25.8060000 147.3229408  35.0939408  25.6660000
 148.7599408  58.1839408   3.0480000 148.8759408  57.2849408   3.3560000
 149.4779408  58.3219408   2.4310000 122.6489408  37.0719408  23.3300000
 122.9159408  37.8839408  22.8980000 122.1039408  36.6239408  22.6820000
 142.4329408  54.4709408   0.8190000 141.6569408  54.3989408   1.3750000
 142.5059408  53.6149408   0.3970000 147.0089408  37.7539408  20.9100000
 147.1639408  37.5669408  21.8360000 146.1749408  37.3249408  20.7160000
 123.2349408  48.6979408  24.7910000 122.6099408  47.9739408  24.8150000
 124.0829408  48.2909408  24.9680000 125.1829408  45.2449408  28.7310000
 125.2499408  44.6459408  27.9880000 126.0909408  45.4169408  28.9820000
 139.5569408  49.2589408   4.7920000 139.8279408  48.5009408   4.2750000
 139.5719408  49.9889408   4.1730000 146.9399408  40.5709408   5.5480000
 147.2969408  41.4359408   5.7460000 147.5429408  40.2049408   4.9000000
 142.1869408  37.3489408  23.2340000 142.6329408  37.2299408  22.3960000
 141.9849408  36.4599408  23.5270000 143.0549408  56.8219408  15.9560000
 142.1179408  56.8199408  16.1500000 143.1779408  56.0819408  15.3610000
 146.0829408  44.9759408  22.9120000 146.8299408  44.5689408  22.4730000
 146.1679408  44.7089408  23.8270000 121.7139408  34.7479408   4.2270000
 121.3929408  34.3309408   3.4270000 121.0859408  34.4889408   4.9010000
 146.7119408  58.8939408   1.2240000 147.5319408  58.5429408   1.5710000
 146.3319408  59.3829408   1.9540000 144.2559408  53.5429408  18.3680000
 144.2759408  52.7569408  18.9150000 145.1489408  53.6239408  18.0320000
 147.4089408  58.0439408  28.3580000 146.8659408  58.5749408  28.9420000
 148.0689408  58.6529408  28.0260000 126.1619408  51.5309408  25.3790000
 126.6229408  52.3089408  25.0660000 126.8009408  50.8229408  25.2930000
 144.1759408  48.5089408   1.7660000 144.5339408  49.3739408   1.5650000
 144.8279408  48.1069408   2.3410000 145.2449408  45.1359408  19.2390000
 144.6809408  45.3399408  19.9860000 145.0279408  45.8009408  18.5860000
 147.8889408  32.9389408   0.7890000 147.1389408  32.3659408   0.9500000
 147.5709408  33.8159408   1.0000000 137.5889408  35.9449408  21.8650000
 137.9269408  35.0509408  21.9150000 138.2399408  36.4199408  21.3480000
 138.6329408  33.7929408  27.6990000 139.4459408  33.2949408  27.6140000
 138.5859408  34.0199408  28.6280000 149.2179408  41.7099408  26.2810000
 149.3859408  41.1539408  27.0420000 149.5759408  42.5639408  26.5240000
 140.0679408  36.6019408  20.6770000 140.4109408  35.7399408  20.4420000
 140.8469408  37.1369408  20.8290000 149.4139408  33.1659408  16.0720000
 149.2369408  32.3849408  16.5970000 148.9069408  33.8589408  16.4960000
 146.1419408  42.3979408  27.6270000 145.4329408  42.2329408  28.2480000
 146.9029408  42.5879408  28.1750000 137.8799408  37.6249408  24.1220000
 137.7579408  36.6759408  24.0920000 137.0159408  37.9709408  24.3480000
 141.5639408  45.6829408  25.4200000 142.2419408  45.5029408  26.0710000
 141.3869408  44.8329408  25.0160000 149.8499408  32.5939408  28.7080000
 149.3119408  32.9239408  29.4270000 149.7199408  33.2259408  28.0010000
 144.0009408  34.7069408   5.0710000 143.8849408  34.5229408   4.1390000
 144.2479408  33.8649408   5.4530000 148.6979408  34.9809408  23.9730000
 149.2289408  35.6649408  24.3820000 149.2709408  34.2149408  23.9480000
 122.5169408  33.7909408  28.9940000 122.3399408  34.7299408  29.0370000
 122.0049408  33.4829408  28.2460000 129.8899408  41.8059408  17.1790000
 130.2009408  41.2239408  17.8720000 130.1229408  41.3559408  16.3660000
 122.2539408  45.9619408  24.7120000 121.4929408  45.4689408  24.4070000
 123.0069408  45.4519408  24.4130000 140.1359408  46.2199408  28.9780000
 139.9219408  45.3049408  28.7990000 140.5769408  46.2019408  29.8280000
 140.0029408  39.2039408  23.4090000 140.8009408  38.6759408  23.4560000
 139.3039408  38.6049408  23.6730000 143.6059408  42.7209408  14.1930000
 143.3069408  42.6279408  13.2890000 143.8659408  43.6389408  14.2670000
 141.9269408  48.4589408  27.4240000 141.6859408  49.2179408  27.9550000
 141.2059408  47.8409408  27.5460000 140.6599408  50.6539408  28.5530000
 140.8069408  50.9329408  29.4560000 140.5649408  51.4699408  28.0610000
 143.0969408  37.0939408  20.7320000 143.5719408  37.7899408  20.2780000
 143.5829408  36.2959408  20.5220000 120.1209408  37.1739408  25.0360000
 121.0009408  37.3079408  24.6820000 119.6779408  38.0119408  24.9010000
 141.2829408  34.2129408  10.2370000 142.1709408  34.4309408  10.5200000
 140.9569408  35.0169408   9.8310000 125.2779408  41.5559408   7.5480000
 124.8449408  40.9229408   8.1220000 125.5749408  42.2489408   8.1370000
 126.0519408  36.0389408  12.9900000 126.7619408  35.9259408  12.3580000
 125.9799408  36.9859408  13.1040000 145.8779408  44.2189408  25.3820000
 145.9199408  43.5969408  26.1090000 145.3539408  44.9449408  25.7190000
 146.9689408  56.1229408  22.1750000 147.8909408  56.2139408  22.4190000
 146.8059408  56.8519408  21.5770000 120.5089408  39.7659408  13.8980000
 119.8269408  39.7809408  14.5700000 120.2249408  39.0889408  13.2830000
 142.0069408  43.9469408  16.1180000 142.6479408  43.3789408  15.6900000
 142.4899408  44.3509408  16.8390000 141.3509408  53.5839408  27.1550000
 142.0519408  54.1379408  26.8110000 140.8199408  54.1729408  27.6900000
 123.1369408  45.9089408  17.4420000 123.2879408  46.7359408  17.8990000
 122.3239408  46.0479408  16.9560000 144.1139408  33.7159408  21.1230000
 144.5879408  34.4759408  20.7840000 144.5419408  33.5189408  21.9560000
 119.8739408  39.2279408  27.4500000 120.4399408  39.4969408  26.7260000
 120.4529408  38.7489408  28.0430000 133.7419408  36.4529408  15.6390000
 134.2449408  36.8479408  14.9270000 133.4279408  37.1979408  16.1520000
 148.1879408  42.5169408  29.3490000 149.0379408  42.9559408  29.3450000
 148.2049408  41.9679408  30.1330000 123.9139408  44.3159408  20.0960000
 123.3239408  45.0459408  20.2810000 123.8699408  44.2069408  19.1460000
 139.3529408  39.0949408  19.9650000 138.9699408  39.8979408  20.3180000
 139.1119408  38.4159408  20.5960000 137.2159408  32.2419408  14.2630000
 137.4569408  31.6839408  15.0030000 136.9959408  33.0849408  14.6600000
 125.4609408  44.3169408  26.1370000 124.8509408  43.6819408  25.7600000
 126.2679408  43.8219408  26.2740000 126.1759408  33.6459408  23.8610000
 127.0319408  33.4339408  24.2340000 125.6269408  33.8449408  24.6190000
 120.6509408  44.1239408  23.5250000 119.7119408  43.9479408  23.5810000
 120.9809408  43.4709408  22.9080000 122.0539408  42.5049408  21.6720000
 122.7779408  43.0489408  21.3630000 121.3189408  42.7389408  21.1060000
 147.4739408  38.2959408   7.3770000 147.0789408  39.0559408   6.9490000
 147.4529408  37.6089408   6.7110000 124.6389408  38.2059408   0.3610000
 124.5499408  39.1419408   0.5400000 125.5799408  38.0399408   0.4160000
 123.5789408  35.2939408  14.7230000 124.2869408  35.7469408  14.2640000
 122.8469408  35.9109408  14.7040000 134.3679408  38.5949408  20.4910000
 134.4269408  39.5469408  20.5680000 134.3979408  38.4279408  19.5490000
 122.4339408  59.4479408  21.3220000 121.7669408  58.7629408  21.3040000
 122.1439408  60.0829408  20.6670000 139.6399408  47.0629408  21.6660000
 140.2749408  47.2579408  22.3550000 139.4069408  47.9179408  21.3040000
 147.1349408  42.3819408  21.4320000 146.3539408  41.8949408  21.6950000
 147.7049408  42.3559408  22.2000000 121.7099408  34.5589408  17.3620000
 121.2679408  34.1129408  16.6390000 121.0809408  35.2169408  17.6580000
 123.7859408  33.1389408   5.5410000 124.7399408  33.2159408   5.5740000
 123.5029408  33.8839408   5.0110000 142.3099408  40.3559408  21.7640000
 141.7209408  41.1059408  21.6740000 141.7629408  39.6659408  22.1410000
 148.6129408  50.5529408  20.3810000 149.2029408  50.8629408  21.0670000
 148.5069408  51.3039408  19.7970000 138.5159408  55.7009408   0.7170000
 138.6129408  56.6029408   1.0230000 139.1969408  55.5999408   0.0510000
 144.3199408  45.3179408  13.4330000 143.7379408  46.0469408  13.2200000
 144.8819408  45.6559408  14.1310000 142.5469408  45.5769408   4.2880000
 141.8889408  46.0879408   3.8160000 142.4899408  44.7009408   3.9070000
 139.5539408  30.0589408  17.2370000 139.8519408  30.3489408  16.3750000
 138.6799408  30.4369408  17.3290000 144.5779408  56.1839408  19.7680000
 145.3119408  55.7339408  19.3490000 143.8019408  55.8429408  19.3220000
 141.9709408  59.7309408   4.2900000 141.4919408  60.5529408   4.3860000
 142.2929408  59.5359408   5.1700000 139.7779408  53.9979408  13.5600000
 140.2779408  54.1409408  12.7560000 140.3799408  53.5269408  14.1360000
 136.2369408  32.5929408   7.0360000 136.4979408  31.7169408   6.7530000
 137.0569408  33.0199408   7.2820000 137.8549408  33.6489408   8.8230000
 138.0219408  34.5789408   8.9790000 137.6949408  33.2839408   9.6930000
 140.3289408  54.1079408   2.8240000 139.6049408  54.5969408   2.4350000
 140.2499408  54.2699408   3.7640000 141.6989408  30.0119408  19.4060000
 142.3109408  29.7979408  18.7010000 140.9559408  30.4209408  18.9620000
 147.1489408  51.4149408   8.1260000 147.0169408  51.9989408   8.8730000
 146.3659408  50.8649408   8.1090000 141.1139408  32.1109408   4.7390000
 141.1109408  32.6599408   5.5240000 141.5609408  32.6399408   4.0780000
 142.0079408  40.1399408  16.2200000 141.9829408  40.3189408  15.2790000
 142.8879408  39.7949408  16.3750000 136.6089408  48.0909408  13.3550000
 136.7289408  47.5009408  12.6110000 137.4469408  48.5439408  13.4390000
 147.8639408  47.4319408   9.3610000 147.7469408  47.2979408  10.3010000
 148.3079408  48.2779408   9.2930000 121.0329408  55.6039408  13.9710000
 120.2089408  55.2399408  14.2930000 121.2309408  55.0919408  13.1870000
 121.9339408  59.6879408  18.6420000 122.2469408  58.7839408  18.6550000
 121.5109408  59.7829408  17.7880000 121.1559408  48.4609408  20.0400000
 120.2709408  48.7809408  19.8660000 121.0349408  47.5459408  20.2950000
 122.0799408  58.3339408   3.5080000 121.6479408  58.7749408   2.7770000
 122.4669408  59.0439408   4.0210000 137.4589408  49.6149408   6.9330000
 136.5709408  49.2699408   7.0270000 137.7209408  49.3639408   6.0470000
 145.5019408  55.3549408  28.7860000 146.3499408  54.9159408  28.7100000
 145.0439408  55.1329408  27.9750000 146.6749408  47.5639408  13.5590000
 146.2789408  47.7839408  14.4030000 146.8119408  46.6169408  13.5990000
 139.9319408  53.5469408   5.4520000 139.4589408  52.7149408   5.4690000
 140.8459408  53.3059408   5.6030000 143.0439408  51.6259408  13.4910000
 142.5689408  51.6099408  12.6600000 143.9519408  51.4399408  13.2520000
 141.5259408  57.0239408   3.9340000 141.8329408  56.7029408   3.0860000
 141.8009408  57.9409408   3.9570000 142.5659408  53.1829408   6.2490000
 142.5139408  52.3989408   6.7960000 143.4839408  53.2299408   5.9820000
 122.7359408  53.2419408  21.7040000 122.8889408  53.6109408  20.8350000
 122.5469408  53.9999408  22.2570000 145.2289408  33.2469408  12.4100000
 144.8559408  32.6399408  11.7710000 146.0849408  33.4789408  12.0500000
 123.0529408  56.7679408  15.5720000 122.4119408  56.2939408  15.0430000
 123.1159408  57.6289408  15.1590000 144.1119408  51.8259408   3.7350000
 144.7569408  52.4489408   4.0690000 144.4369408  51.5849408   2.8680000
 145.3229408  46.5199408   3.7300000 145.4299408  45.8639408   3.0410000
 144.4889408  46.2979408   4.1450000 121.2079408  54.3789408  28.9760000
 120.7519408  53.5889408  29.2650000 122.1189408  54.1049408  28.8680000
 145.6729408  50.8899408  23.2500000 145.9379408  51.6929408  22.8020000
 145.0279408  50.4909408  22.6670000 148.0719408  45.0429408  14.1250000
 148.3279408  44.1539408  13.8810000 148.7059408  45.6059408  13.6790000
 141.3089408  51.2979408  10.9070000 140.3719408  51.3809408  11.0840000
 141.3559408  50.9219408  10.0280000 139.9409408  55.9629408  28.3800000
 139.0549408  56.3189408  28.3170000 140.3819408  56.2749408  27.5900000
 142.7679408  49.3119408  17.3790000 142.3009408  50.0629408  17.0110000
 143.4259408  49.6989408  17.9570000 139.7129408  51.5399408   7.5910000
 139.1179408  50.8719408   7.2500000 140.5109408  51.0599408   7.8100000
 143.7039408  47.7479408  10.5130000 144.1529408  46.9339408  10.2860000
 142.9529408  47.7799408   9.9200000 147.4709408  55.8359408   6.5070000
 147.7579408  54.9329408   6.6370000 147.3959408  55.9299408   5.5570000
 147.1539408  55.2229408  18.8610000 147.2309408  54.5909408  18.1470000
 147.9429408  55.7599408  18.7930000 148.9979408  45.2499408  17.3840000
 148.6679408  45.0439408  18.2580000 148.5579408  44.6249408  16.8080000
 137.0249408  52.7099408  17.6690000 136.8809408  52.0149408  17.0260000
 136.7759408  53.5139408  17.2140000 145.5159408  32.1409408   2.2740000
 144.6969408  32.6339408   2.2290000 145.2789408  31.3189408   2.7030000
 147.8379408  46.4779408   4.9610000 147.1649408  46.4449408   4.2810000
 148.2269408  47.3489408   4.8720000 138.1619408  41.4479408  18.1310000
 138.1129408  41.6889408  19.0560000 139.0279408  41.7449408  17.8520000
 131.7949408  34.1809408  15.4660000 131.0579408  34.3869408  16.0420000
 132.4969408  34.7619408  15.7580000 144.6279408  59.7129408   3.2650000
 143.6809408  59.5999408   3.3410000 144.9819408  59.3039408   4.0550000
 144.1549408  58.4689408   8.6710000 144.9869408  57.9959408   8.6860000
 143.5239408  57.8559408   9.0480000 147.6299408  58.3429408   7.5860000
 147.5669408  57.3909408   7.5050000 147.5549408  58.5079408   8.5260000
 146.7179408  53.2369408  17.1170000 147.0469408  53.5299408  16.2670000
 146.4409408  52.3329408  16.9690000 148.6429408  53.4169408   2.1320000
 149.5469408  53.7219408   2.2000000 148.2299408  54.0239408   1.5180000
 138.1019408  59.3339408  13.8490000 138.8249408  59.9569408  13.9170000
 138.5209408  58.5029408  13.6270000 120.8829408  45.8929408  20.9960000
 121.0199408  45.6469408  21.9110000 120.0429408  45.4959408  20.7640000
 149.7119408  57.0349408  18.1520000 149.5509408  57.4989408  17.3300000
 149.2639408  57.5589408  18.8150000 127.1339408  53.6299408  17.5170000
 126.9599408  54.4419408  17.0430000 127.4829408  53.0339408  16.8540000
 124.8129408  50.6049408  20.3340000 124.8989408  51.5329408  20.5520000
 124.8869408  50.1529408  21.1740000 145.3029408  56.0099408  11.7730000
 145.0519408  55.5969408  10.9470000 144.6769408  56.7259408  11.8830000
 135.4609408  53.4619408   3.0360000 135.9439408  53.2799408   2.2300000
 135.3659408  52.6069408   3.4560000 145.1669408  55.1589408   1.8110000
 144.2559408  54.8679408   1.8270000 145.3879408  55.2049408   0.8810000
 141.1539408  57.1659408   6.5480000 141.4189408  56.9389408   5.6570000
 141.5359408  58.0299408   6.7000000 137.0539408  56.8609408  28.2050000
 136.3929408  57.1089408  28.8510000 136.5519408  56.4939408  27.4770000
 136.0469408  34.5639408  15.7710000 136.0809408  34.5099408  16.7260000
 135.4529408  35.2939408  15.5940000 122.8799408  57.4629408  12.2670000
 122.0239408  57.0379408  12.2150000 123.2679408  57.3299408  11.4030000
 148.6919408  49.2009408   3.8620000 149.5599408  48.8229408   3.7170000
 148.1619408  48.8679408   3.1380000 147.3199408  48.8899408   1.5420000
 147.8129408  49.1749408   0.7720000 147.3469408  47.9339408   1.5040000
 120.1709408  55.8719408   3.6420000 120.6029408  55.3299408   2.9810000
 120.8439408  56.4929408   3.9200000 141.9069408  50.2649408   8.2860000
 141.7919408  49.3209408   8.3890000 142.4119408  50.3589408   7.4790000
 140.8209408  55.7819408  11.5460000 140.6039408  55.9449408  10.6280000
 140.7959408  56.6459408  11.9560000 147.3569408  31.1799408   6.2670000
 147.6309408  31.6629408   5.4870000 148.0139408  30.4909408   6.3660000
 138.4929408  50.8929408  11.3400000 138.2899408  50.2629408  10.6490000
 137.8709408  51.6069408  11.2050000 147.5929408  58.9229408  10.4380000
 147.4519408  59.3709408  11.2720000 148.5019408  58.6269408  10.4740000
 129.8979408  58.3239408  17.5680000 130.5479408  57.6229408  17.5210000
 129.0609408  57.8869408  17.4100000 120.6229408  55.0849408  19.8260000
 121.5509408  54.8679408  19.9130000 120.5909408  55.7159408  19.1080000
 132.2699408  46.4249408  28.7760000 132.9509408  47.0969408  28.8060000
 132.4539408  45.9319408  27.9760000 149.5049408  39.6089408   3.9390000
 149.2369408  39.4409408   3.0360000 150.3389408  39.1489408   4.0320000
 144.9399408  58.5519408  12.8940000 145.6679408  58.0659408  13.2810000
 145.3499408  59.3119408  12.4820000 146.2609408  50.5759408  16.5330000
 145.9599408  49.7359408  16.1870000 147.1519408  50.4039408  16.8380000
 120.9209408  59.9589408   9.9480000 121.4189408  59.3979408   9.3520000
 120.0779408  60.0829408   9.5120000 120.1289408  30.2789408   6.1440000
 120.1339408  30.2069408   5.1890000 120.6739408  29.5509408   6.4420000
 140.1059408  56.3139408   8.9570000 140.3829408  56.3689408   8.0430000
 139.8789408  57.2129408   9.1940000 143.6379408  59.1839408  27.3740000
 143.8629408  58.6559408  28.1400000 143.7149408  60.0889408  27.6760000
 137.8029408  31.4979408   2.0150000 137.8179408  31.3079408   2.9530000
 137.9959408  30.6579408   1.5970000 141.2849408  51.4409408   3.2030000
 142.1909408  51.6019408   3.4660000 140.9289408  52.3109408   3.0260000
 144.8339408  48.1349408  15.5300000 145.1179408  47.2749408  15.8380000
 144.2629408  48.4619408  16.2250000 145.9399408  53.0769408  10.1740000
 145.0409408  52.8989408  10.4490000 145.8779408  53.8789408   9.6550000
 127.8459408  34.6539408  28.8310000 128.2209408  34.7389408  29.7070000
 127.3629408  33.8279408  28.8550000 120.5509408  53.0329408   8.3860000
 120.1859408  53.4379408   7.6000000 119.8569408  53.1109408   9.0410000
 141.0919408  32.8469408  27.7180000 141.6289408  32.2659408  28.2570000
 141.7059408  33.5029408  27.3870000 139.0939408  55.2559408  17.6310000
 138.8449408  55.5209408  18.5160000 138.5189408  54.5169408  17.4310000
 144.6889408  56.4959408  23.9890000 145.4609408  56.4079408  23.4300000
 144.0209408  55.9579408  23.5630000 139.7889408  57.3129408  23.2930000
 140.5389408  57.1429408  22.7230000 139.6029408  58.2449408  23.1720000
 146.0789408  58.6559408   5.3270000 146.5179408  58.9459408   6.1270000
 146.5309408  57.8469408   5.0860000 141.9989408  57.5469408   1.0180000
 142.9239408  57.6119408   0.7810000 141.7279408  56.6889408   0.6910000
 137.6129408  50.7449408   3.2240000 137.4149408  49.8939408   2.8320000
 137.7729408  51.3209408   2.4770000 148.7029408  53.2359408  20.3090000
 149.5569408  53.6369408  20.1500000 148.0819408  53.8059408  19.8540000
 139.1839408  52.3919408  19.3730000 138.8759408  52.0519408  20.2130000
 138.3959408  52.4469408  18.8330000 148.9259408  49.3549408  29.1130000
 148.4939408  49.0299408  28.3230000 149.7449408  48.8629408  29.1590000
 142.4529408  52.8319408  24.3870000 143.2899408  53.2969408  24.4070000
 141.9209408  53.3219408  23.7600000 149.3329408  50.1069408   9.6110000
 150.1389408  50.5079408   9.2850000 148.7129408  50.1949408   8.8870000
 149.7389408  31.2499408  22.7270000 149.9719408  30.5979408  22.0660000
 148.7969408  31.1349408  22.8560000 134.6139408  54.3099408  28.8680000
 133.7559408  54.7329408  28.8890000 135.0889408  54.7639408  28.1720000
 121.4839408  50.5129408  26.1210000 121.9909408  49.8839408  25.6070000
 120.8779408  50.9039408  25.4910000 146.4009408  40.1289408  29.6700000
 146.3809408  40.6799408  30.4520000 146.2529408  40.7369408  28.9450000
 149.0999408  56.4319408  25.9860000 148.5239408  56.4859408  26.7480000
 148.5919408  55.9469408  25.3350000 147.4289408  54.6289408  24.5640000
 146.6139408  54.5409408  24.0710000 147.3679408  53.9629408  25.2490000
 146.4519408  48.2429408  23.9800000 146.5979408  49.0739408  23.5290000
 145.5169408  48.0689408  23.8690000 146.6279408  35.1689408  30.1560000
 145.8039408  34.7719408  29.8740000 146.6229408  36.0389408  29.7570000
 122.8429408  55.7119408  23.1490000 123.7689408  55.4969408  23.0340000
 122.8479408  56.5679408  23.5780000 143.8769408  51.7659408  27.1800000
 144.5629408  52.2469408  26.7180000 143.0929408  52.3049408  27.0720000
 148.0669408  45.0089408  20.1910000 148.0739408  45.9439408  19.9830000
 147.1889408  44.8459408  20.5340000 146.0639408  47.5379408  28.8710000
 146.7539408  46.9079408  28.6660000 146.4249408  48.3839408  28.6060000
 149.9059408  58.0329408  21.8660000 149.3759408  58.3819408  22.5830000
 150.0419408  57.1129408  22.0930000 147.5559408  53.3009408  28.4550000
 148.1949408  53.8009408  28.9620000 148.0589408  52.9369408  27.7270000
 147.8099408  47.9179408  26.6380000 147.3599408  48.3039408  25.8870000
 147.8709408  46.9859408  26.4280000 140.8229408  50.4389408  24.5460000
 141.4419408  51.1659408  24.6110000 140.8099408  50.2179408  23.6140000
 146.1169408  30.6769408  26.5390000 145.8869408  30.0879408  25.8210000
 146.9099408  30.2969408  26.9170000 144.0979408  42.2559408  29.3850000
 143.7049408  43.1289408  29.3770000 143.3609408  41.6629408  29.5350000
 123.7959408  32.6399408   1.5360000 123.1589408  33.0979408   0.9870000
 123.2689408  32.0539408   2.0780000 149.0779408  52.0099408  26.4940000
 149.7929408  51.5059408  26.8830000 149.4689408  52.4279408  25.7270000
 146.4579408  52.1029408  25.8250000 147.2999408  51.6859408  26.0080000
 146.1359408  51.6579408  25.0400000 144.2699408  59.2149408  24.6630000
 144.2869408  58.9489408  25.5820000 144.4699408  58.4149408  24.1780000
 139.3969408  52.8279408  25.2380000 139.5079408  52.1059408  24.6190000
 140.1119408  52.7199408  25.8640000 140.7379408  33.9019408  20.2470000
 140.8629408  33.9519408  19.3000000 141.6089408  34.0529408  20.6130000
 149.0199408  58.8129408  24.3330000 149.8619408  59.1639408  24.6250000
 148.8459408  58.0819408  24.9260000 136.8359408  31.2099408  27.0900000
 137.4759408  30.5949408  27.4500000 137.1229408  32.0669408  27.4050000
 146.1579408  56.4039408   3.9090000 145.6669408  57.2129408   4.0520000
 145.8099408  56.0549408   3.0890000 137.0399408  58.4119408  24.8180000
 137.5809408  58.5059408  25.6020000 137.1749408  57.5059408  24.5410000
 143.6199408  54.9529408  22.0760000 142.8519408  54.5989408  21.6270000
 144.1499408  55.3379408  21.3780000 141.2529408  53.5169408  20.7880000
 140.5179408  53.0819408  20.3570000 140.8559408  53.9929408  21.5170000
 123.1729408  59.6979408  23.8650000 122.8949408  59.4999408  22.9710000
 123.6089408  60.5479408  23.7990000 144.4219408  39.4159408  20.1160000
 145.2529408  39.6309408  20.5400000 143.7539408  39.7569408  20.7110000
 122.7039408  51.1609408   0.5350000 121.8629408  51.6189408   0.5440000
 122.8899408  51.0209408  -0.3940000 138.5739408  56.5729408  19.9790000
 139.3969408  57.0059408  20.2050000 137.9349408  56.9379408  20.5900000
 143.9579408  31.6669408  23.3620000 143.0839408  31.9459408  23.6370000
 144.0009408  30.7409408  23.6010000 148.8059408  46.1259408  29.0390000
 149.4149408  46.8549408  28.9240000 149.3669408  45.3549408  29.1220000
 143.5929408  50.4459408   6.1030000 144.4549408  50.0469408   6.2220000
 143.6239408  50.8299408   5.2270000 141.0189408  51.9559408  17.3460000
 140.6409408  52.0609408  18.2200000 141.4569408  52.7889408  17.1720000
 149.3579408  36.4659408  21.7420000 148.9689408  36.1709408  20.9190000
 149.0259408  35.8529408  22.3980000 125.0389408  50.2599408  23.3180000
 125.4329408  50.8059408  23.9980000 124.2329408  49.9279408  23.7140000
 144.5659408  57.9129408  29.5880000 144.9279408  57.0679408  29.3220000
 145.1819408  58.2429408  30.2420000 142.3159408  30.6029408   0.0200000
 142.8489408  30.3259408   0.7650000 142.9519408  30.8169408  -0.6630000
 122.0639408  32.4419408  19.6400000 122.0359408  33.1009408  18.9460000
 121.3919408  31.8059408  19.3950000 136.0279408  59.2599408  18.5900000
 135.0909408  59.1729408  18.4130000 136.1359408  58.9249408  19.4800000
 140.3859408  54.2079408  23.2040000 140.0829408  55.1069408  23.3300000
 139.8389408  53.6859408  23.7910000 120.8689408  36.2169408   0.9050000
 121.1979408  36.6709408   0.1290000 121.6129408  36.1979408   1.5060000
 124.5629408  55.8619408  25.9740000 123.6279408  56.0279408  26.0910000
 124.7009408  54.9909408  26.3480000 130.0009408  56.2329408  21.9690000
 130.8279408  55.7619408  22.0740000 130.2609408  57.1449408  21.8330000
 133.1139408  59.2469408  18.1040000 133.4209408  58.6579408  17.4150000
 132.3449408  59.6749408  17.7280000 124.1209408  43.6749408  43.7610000
 124.0209408  44.4239408  44.3480000 124.6659408  43.0579408  44.2490000
 139.4019408  47.0039408  33.4620000 139.3069408  46.1259408  33.8320000
 138.6369408  47.1089408  32.8970000 141.2879408  35.2629408  59.9310000
 140.5409408  34.9539408  60.4440000 140.9199408  35.9259408  59.3470000
 126.9639408  57.2739408  34.1330000 126.2589408  56.7169408  34.4630000
 126.9889408  58.0129408  34.7410000 141.1249408  31.1489408  51.7350000
 140.9649408  30.2999408  51.3230000 141.6349408  31.6379408  51.0890000
 126.7109408  48.7099408  51.4700000 126.3839408  49.3649408  52.0880000
 127.6529408  48.8729408  51.4250000 131.8849408  41.9679408  42.0810000
 131.2899408  41.2449408  42.2800000 132.7569408  41.5759408  42.1090000
 125.8789408  36.9689408  38.7010000 125.4139408  36.1719408  38.4480000
 125.9029408  37.4959408  37.9020000 135.1049408  47.8279408  45.6050000
 134.2939408  47.6459408  45.1300000 135.7899408  47.7719408  44.9380000
 120.6359408  44.0729408  38.5360000 119.8129408  44.3929408  38.1640000
 120.9089408  43.3719408  37.9450000 138.8559408  48.6129408  39.2840000
 138.4689408  48.1719408  40.0410000 138.1489408  49.1559408  38.9360000
 129.0639408  38.6819408  47.8260000 128.4579408  38.2489408  48.4280000
 129.3939408  37.9759408  47.2700000 131.2259408  41.3479408  35.7040000
 130.6419408  41.7979408  36.3140000 131.6789408  40.6969408  36.2400000
 137.4669408  45.2269408  47.9080000 137.9479408  45.1439408  48.7320000
 138.1319408  45.1079408  47.2300000 142.0799408  39.5039408  36.3360000
 141.9909408  39.7379408  35.4120000 142.7389408  40.1109408  36.6740000
 125.6149408  43.6859408  38.9500000 125.7649408  43.7169408  39.8950000
 124.7539408  44.0859408  38.8300000 149.3079408  48.9599408  45.2020000
 149.6479408  49.5329408  45.8900000 149.8979408  49.0979408  44.4610000
 122.5329408  37.1629408  58.8470000 123.2739408  37.5749408  59.2930000
 122.8629408  36.9599408  57.9720000 132.9309408  55.5519408  44.1980000
 133.8639408  55.3599408  44.1090000 132.5239408  55.1209408  43.4470000
 148.0369408  35.5629408  35.5490000 147.0969408  35.6829408  35.4130000
 148.2159408  34.6789408  35.2300000 138.3629408  51.3589408  30.6810000
 137.7089408  52.0489408  30.5670000 138.2789408  50.8169408  29.8970000
 130.6849408  45.9839408  36.6650000 131.1339408  46.8249408  36.7490000
 129.8769408  46.0929408  37.1670000 138.4319408  34.8569408  55.0460000
 138.1149408  34.5139408  55.8810000 138.3719408  34.1159408  54.4430000
 148.7999408  39.9389408  45.7730000 147.8609408  39.9999408  45.5990000
 148.8569408  39.5959408  46.6650000 122.3889408  50.7699408  33.8460000
 123.1819408  51.3059408  33.8470000 122.6729408  49.9199408  34.1820000
 137.9779408  44.4559408  40.6650000 137.2519408  44.3639408  40.0480000
 137.7039408  43.9559408  41.4340000 129.6549408  54.0029408  60.1860000
 129.0479408  54.5939408  59.7410000 130.5229408  54.3469408  59.9750000
 133.5299408  44.6779408  30.5350000 132.9009408  43.9769408  30.7060000
 133.0779408  45.2629408  29.9270000 136.9329408  52.0279408  43.3670000
 137.2779408  52.9039408  43.1980000 137.6629408  51.4399408  43.1730000
 124.4319408  58.7859408  56.2340000 124.8979408  58.1089408  55.7430000
 123.7839408  59.1269408  55.6170000 131.7599408  53.1179408  38.5430000
 131.6899408  53.8819408  37.9720000 132.0759408  52.4179408  37.9710000
 134.5309408  56.0489408  31.8910000 135.1549408  56.0429408  31.1650000
 134.9719408  55.5639408  32.5890000 121.5889408  37.8679408  35.1380000
 121.9129408  37.0799408  34.7030000 122.3749408  38.2939408  35.4810000
 124.3779408  31.6949408  46.6380000 123.4469408  31.8319408  46.4640000
 124.7679408  31.5709408  45.7730000 136.9779408  44.3809408  58.3850000
 137.8199408  43.9829408  58.6060000 137.1409408  44.8459408  57.5640000
 131.0189408  32.1809408  48.1460000 130.7569408  33.1019408  48.1390000
 131.6919408  32.1279408  48.8240000 135.1549408  30.6799408  38.8720000
 134.7649408  31.4279408  38.4200000 135.0899408  29.9599408  38.2450000
 135.4189408  44.0349408  43.0950000 134.8099408  43.9809408  43.8320000
 134.8679408  44.2559408  42.3440000 126.8749408  56.9259408  39.7580000
 127.0919408  57.8089408  40.0560000 127.0169408  56.9499408  38.8120000
 132.2769408  39.0759408  56.9600000 131.8759408  39.8269408  56.5240000
 132.9859408  39.4519408  57.4820000 148.5349408  45.5709408  37.6430000
 148.4489408  46.1489408  36.8850000 148.1879408  46.0809408  38.3750000
 128.3539408  36.3839408  33.5020000 129.0179408  36.9059408  33.0520000
 127.9879408  36.9769408  34.1590000 144.3849408  39.4109408  47.3650000
 144.7209408  38.5179408  47.2950000 144.2909408  39.5589408  48.3060000
 127.7939408  43.7699408  37.0920000 127.1589408  43.5089408  37.7590000
 128.3649408  43.0079408  36.9930000 129.0859408  32.8069408  42.3010000
 129.2659408  33.2629408  41.4790000 129.7729408  33.1059408  42.8980000
 135.8509408  43.9929408  39.0110000 135.1649408  44.5659408  38.6690000
 135.4019408  43.1709408  39.2080000 127.6489408  47.3009408  42.5020000
 127.1329408  47.8939408  43.0490000 127.6139408  46.4609408  42.9600000
 142.4549408  33.6049408  32.6640000 141.6819408  33.5749408  32.1000000
 142.7979408  34.4919408  32.5530000 141.2289408  50.5009408  44.9470000
 140.8759408  51.0379408  45.6570000 141.9479408  51.0209408  44.5870000
 127.2079408  38.2029408  59.8520000 127.3599408  38.7419408  60.6280000
 128.0649408  38.1409408  59.4310000 130.4099408  55.8839408  56.7950000
 130.4019408  56.2829408  55.9250000 129.6159408  56.2129408  57.2170000
 131.1919408  56.2969408  31.5580000 131.2509408  57.2469408  31.6600000
 131.6389408  55.9449408  32.3270000 124.6869408  33.6109408  42.3470000
 123.8339408  33.9499408  42.0730000 125.2309408  34.3909408  42.4540000
 133.1469408  42.3189408  57.0580000 133.5739408  42.0469408  56.2450000
 133.8619408  42.4039408  57.6880000 131.3659408  50.8169408  42.9800000
 131.3449408  51.5859408  42.4090000 132.2869408  50.5579408  42.9990000
 135.5709408  34.5019408  53.2080000 136.1229408  35.1429408  52.7600000
 135.2669408  33.9189408  52.5130000 134.5329408  49.5259408  37.8070000
 134.0209408  48.9609408  38.3850000 133.9069408  50.1799408  37.4950000
 124.9169408  44.0799408  36.0540000 125.2429408  43.2809408  36.4690000
 124.3959408  44.5079408  36.7330000 131.9419408  34.9309408  48.4310000
 132.8109408  35.3169408  48.3240000 131.7659408  34.9919408  49.3700000
 122.9999408  53.7209408  34.9930000 122.5599408  53.1309408  35.6050000
 123.7909408  53.2499408  34.7310000 129.3909408  35.9979408  43.5600000
 128.4679408  35.8209408  43.7410000 129.5449408  35.6099408  42.6990000
 126.4589408  49.0469408  44.2110000 125.7969408  48.9559408  44.8960000
 127.0899408  49.6709408  44.5690000 132.7269408  34.7419408  43.0350000
 133.5559408  34.2759408  42.9230000 132.3699408  34.4009408  43.8560000
 130.9189408  45.5149408  41.9010000 130.0709408  45.1079408  41.7250000
 130.7289408  46.4519408  41.9560000 131.2779408  38.6519408  39.3500000
 131.3409408  37.9429408  39.9910000 130.6729408  39.2789408  39.7440000
 127.3769408  58.8119408  31.6800000 126.6809408  58.2869408  31.2850000
 127.2869408  58.6599408  32.6210000 135.6899408  48.6069408  34.5490000
 135.8669408  48.6029408  33.6090000 136.2479408  47.9129408  34.9010000
 126.0069408  30.8799408  34.4630000 126.8559408  30.4709408  34.2940000
 126.1609408  31.8149408  34.3310000 129.4119408  38.7209408  36.5640000
 129.9009408  38.4549408  37.3430000 130.0189408  39.2819408  36.0810000
 130.9679408  48.3959408  45.9660000 131.6029408  47.8829408  45.4660000
 130.1389408  47.9329408  45.8490000 129.0729408  40.0809408  39.9790000
 129.3089408  40.3209408  40.8750000 128.1399408  39.8699408  40.0250000
 128.6629408  53.0849408  35.7270000 129.1639408  52.7029408  36.4480000
 129.3049408  53.2099408  35.0280000 132.1909408  33.0269408  36.6490000
 132.5829408  33.5069408  37.3790000 132.8259408  32.3399408  36.4440000
 122.7639408  40.3209408  45.9390000 122.1979408  40.7929408  45.3280000
 122.1579408  39.8679408  46.5260000 123.7929408  35.9289408  48.5460000
 124.5359408  35.3939408  48.2680000 123.0419408  35.5539408  48.0850000
 127.2649408  35.4869408  40.7700000 126.6499408  36.0649408  40.3180000
 127.6409408  34.9459408  40.0760000 124.4899408  34.3149408  38.6110000
 123.8189408  33.6769408  38.8510000 124.7519408  34.0669408  37.7250000
 138.2059408  41.1969408  41.0920000 138.7899408  41.1579408  40.3350000
 137.3289408  41.0939408  40.7250000 132.6159408  32.7419408  32.6460000
 132.2479408  33.1119408  31.8440000 133.2749408  33.3789408  32.9240000
 143.6789408  49.2509408  55.6230000 142.9449408  48.9459408  56.1550000
 144.0749408  49.9529408  56.1400000 123.9959408  40.0319408  49.2360000
 124.7059408  39.4889408  48.8920000 124.1359408  40.8909408  48.8370000
 133.6049408  39.6929408  33.1680000 134.0819408  38.9459408  33.5280000
 134.2209408  40.4239408  33.2310000 130.6809408  41.2849408  30.4750000
 130.9629408  41.9649408  29.8630000 130.5939408  41.7389408  31.3140000
 126.1979408  58.7859408  37.3920000 125.6229408  59.3219408  37.9370000
 126.9389408  59.3569408  37.1890000 135.6389408  36.6119408  38.9870000
 135.6199408  36.6119408  39.9440000 136.5409408  36.8459408  38.7660000
 136.1629408  50.3279408  39.8410000 135.8969408  50.1039408  38.9500000
 135.7949408  49.6309408  40.3840000 138.8369408  49.6889408  43.6890000
 139.6529408  49.8079408  44.1740000 139.0429408  49.9709408  42.7980000
 127.3569408  44.9479408  44.1060000 126.7409408  44.6609408  44.7800000
 127.7119408  44.1349408  43.7450000 142.1589408  41.9809408  38.6940000
 142.2029408  42.9319408  38.6020000 142.8179408  41.6489408  38.0840000
 121.5759408  31.8369408  42.3790000 121.6699408  31.3979408  41.5340000
 121.7809408  32.7539408  42.1980000 129.7979408  43.5629408  50.7020000
 129.9119408  42.6129408  50.6900000 130.2249408  43.8659408  49.9000000
 125.8779408  41.1339408  58.3530000 126.6849408  41.2089408  58.8610000
 125.1959408  40.9759408  59.0060000 132.6309408  43.1459408  44.3340000
 132.2629408  43.3379408  43.4710000 132.9819408  42.2589408  44.2530000
 130.1429408  38.5439408  32.9460000 130.7999408  38.6049408  32.2530000
 130.5939408  38.8529408  33.7320000 124.7069408  45.4199408  53.1280000
 124.5639408  45.8999408  52.3120000 124.9709408  46.0909408  53.7570000
 122.9149408  46.4549408  44.3630000 123.5279408  47.1049408  44.7050000
 122.2449408  46.3749408  45.0420000 129.9729408  31.6209408  39.1660000
 130.8859408  31.7839408  38.9290000 130.0159408  31.2549408  40.0490000
 132.5159408  39.3919408  37.0440000 132.9239408  38.9559408  36.2950000
 132.6179408  38.7729408  37.7670000 140.6819408  44.5549408  40.8580000
 140.4699408  44.9719408  41.6930000 139.8309408  44.3559408  40.4670000
 138.2509408  40.8129408  57.5970000 137.9399408  40.8729408  56.6940000
 139.1989408  40.9269408  57.5330000 125.0659408  42.1979408  48.1450000
 125.8319408  41.7159408  47.8330000 124.6889408  42.5859408  47.3550000
 124.4699408  36.9909408  51.0950000 124.3759408  36.7169408  50.1820000
 124.4599408  37.9469408  51.0610000 136.7989408  38.8369408  51.9130000
 136.1259408  38.2629408  51.5470000 137.3839408  38.2479408  52.3890000
 137.3339408  31.3149408  47.3720000 137.1459408  32.1649408  47.7700000
 136.5919408  30.7639408  47.6200000 124.3569408  54.6489408  43.1330000
 125.1819408  55.0809408  42.9100000 123.8739408  55.2999408  43.6410000
 126.0859408  44.8579408  41.4430000 125.4669408  45.3769408  40.9300000
 125.9959408  45.1919408  42.3360000 133.4409408  46.1729408  38.5040000
 133.3789408  45.9409408  37.5780000 132.7799408  46.8539408  38.6260000
 128.5019408  34.1379408  38.6120000 128.8629408  34.4539408  37.7840000
 128.9809408  33.3279408  38.7890000 129.2219408  59.9579408  49.5540000
 129.1209408  59.3189408  48.8490000 129.7729408  60.6449408  49.1780000
 125.8979408  56.1729408  45.7840000 124.9769408  56.4009408  45.6590000
 126.2559408  56.1269408  44.8980000 124.1719408  38.0399408  36.5580000
 123.5999408  38.3309408  37.2680000 124.3229408  38.8259408  36.0330000
 140.9309408  38.1219408  47.8530000 140.4899408  38.4399408  48.6410000
 141.2959408  38.9089408  47.4480000 123.5469408  59.1949408  44.3880000
 123.4529408  58.7309408  43.5560000 124.0779408  59.9629408  44.1760000
 127.6459408  45.5889408  30.5610000 128.1379408  44.9059408  31.0160000
 128.1499408  46.3889408  30.7110000 129.7719408  32.8839408  35.6410000
 130.6209408  32.7349408  36.0590000 129.7999408  32.3549408  34.8440000
 129.0259408  46.3989408  45.6100000 128.7289408  46.0099408  46.4320000
 128.4029408  46.0809408  44.9560000 144.9449408  40.7089408  52.4340000
 144.4059408  40.1399408  52.9830000 144.3479408  41.3989408  52.1430000
 132.9919408  36.0789408  50.9050000 133.2669408  36.9929408  50.8340000
 133.4549408  35.7489408  51.6750000 133.9919408  40.0189408  59.0960000
 134.7189408  39.4589408  59.3680000 134.3539408  40.5539408  58.3890000
 135.0069408  37.1169408  58.0480000 135.2319408  37.0419408  58.9750000
 134.1499408  36.6969408  57.9740000 139.7759408  47.0209408  36.7930000
 139.6259408  47.7959408  36.2530000 139.1299408  47.0889408  37.4960000
 144.9269408  45.3199408  39.5870000 145.3159408  44.5869408  40.0650000
 145.3279408  45.2809408  38.7190000 125.7419408  41.5499408  42.2860000
 125.5099408  41.7689408  43.1890000 126.5849408  41.9799408  42.1450000
 149.0709408  32.3679408  43.5800000 149.1899408  32.7229408  44.4610000
 149.9599408  32.2269408  43.2550000 135.3469408  37.8619408  43.5700000
 135.5059408  37.1419408  42.9600000 136.2199408  38.1279408  43.8590000
 133.9419408  57.7469408  41.2050000 133.6119408  57.6369408  42.0970000
 133.2129408  58.1429408  40.7270000 121.1999408  47.8119408  59.4490000
 121.9049408  48.0979408  60.0290000 121.6469408  47.3699408  58.7280000
 122.4759408  43.4329408  41.5170000 122.9669408  43.3179408  42.3310000
 122.3929408  44.3819408  41.4200000 124.0809408  40.9719408  40.1910000
 123.3579408  41.5829408  40.3280000 124.6869408  41.1519408  40.9110000
 122.4699408  32.2689408  39.4860000 121.9209408  33.0069408  39.2190000
 121.8819408  31.5139408  39.4670000 123.0199408  46.0899408  41.5960000
 122.9749408  46.1599408  42.5500000 123.1089408  46.9939408  41.2930000
 132.5739408  44.1909408  46.7410000 132.6879408  43.7449408  45.9010000
 133.3929408  44.6689408  46.8720000 135.7109408  42.0629408  58.0250000
 136.5479408  41.6029408  58.0980000 135.9129408  42.9669408  58.2670000
 129.4949408  45.9309408  33.8740000 129.7659408  45.7989408  34.7830000
 129.9059408  46.7569408  33.6190000 128.0449408  48.2839408  47.2700000
 127.8129408  47.5769408  47.8720000 128.2419408  47.8409408  46.4450000
 128.0199408  31.0509408  44.0630000 128.1869408  31.8039408  43.4960000
 128.5849408  31.1939408  44.8240000 132.3299408  53.4389408  34.0320000
 131.5709408  52.9229408  33.7610000 133.0749408  53.0059408  33.6160000
 123.8559408  58.2669408  36.1100000 123.5329408  59.1219408  35.8250000
 124.7399408  58.4389408  36.4320000 122.1229408  52.1309408  47.8600000
 122.8419408  51.8089408  47.3180000 122.3069408  53.0629408  47.9750000
 138.9909408  38.3469408  35.9690000 139.9089408  38.3779408  36.2400000
 138.8449408  37.4349408  35.7200000 125.8029408  46.0779408  34.3120000
 126.5949408  45.6419408  33.9980000 125.6179408  45.6609408  35.1540000
 135.6349408  41.6509408  33.7230000 136.4549408  41.1739408  33.8460000
 135.4639408  42.0589408  34.5730000 133.6209408  45.0579408  41.2560000
 132.8359408  45.3699408  41.7060000 133.5009408  45.3309408  40.3470000
 126.7349408  40.4089408  46.9120000 127.6709408  40.2119408  46.8740000
 126.3309408  39.5979408  47.2210000 129.1019408  49.7299408  52.1000000
 129.8669408  49.3959408  51.6300000 129.3469408  50.6199408  52.3550000
 128.8879408  50.4159408  31.5990000 128.2829408  49.7779408  31.9770000
 128.7719408  51.2019408  32.1330000 133.4439408  30.5639408  35.1250000
 134.2609408  30.5429408  35.6220000 133.7179408  30.5099408  34.2090000
 128.1309408  47.3219408  39.6840000 128.1119408  48.2399408  39.4110000
 127.9969408  47.3509408  40.6310000 131.8609408  38.8709408  30.8180000
 131.4729408  39.7019408  30.5460000 132.8049408  39.0259408  30.7920000
 134.0549408  50.7059408  49.8650000 133.1819408  50.5199408  50.2090000
 134.1139408  50.1809408  49.0660000 128.7819408  44.8269408  40.5120000
 127.8989408  44.6719408  40.8490000 128.7299408  45.6859408  40.0920000
 145.7759408  45.5769408  45.5950000 146.5949408  45.4519408  45.1160000
 145.8309408  44.9639408  46.3280000 134.7319408  35.0299408  36.7360000
 135.2879408  34.2539408  36.6670000 135.2679408  35.6689408  37.2060000
 134.7409408  48.3739408  58.8420000 135.0239408  49.2489408  58.5730000
 135.2609408  48.1829408  59.6220000 134.8019408  45.4929408  46.8610000
 134.9129408  46.3009408  46.3600000 135.6729408  45.3059408  47.2110000
 127.7279408  43.2519408  56.7680000 127.4999408  42.7349408  57.5410000
 128.4259408  43.8349408  57.0650000 138.8059408  48.6449408  59.5420000
 139.1739408  47.7629408  59.4910000 139.4979408  49.2139408  59.2050000
 147.4529408  42.4809408  42.6510000 146.9679408  41.6609408  42.7380000
 148.3159408  42.2169408  42.3320000 139.8039408  40.9529408  38.8190000
 140.7069408  41.2619408  38.7410000 139.2889408  41.5889408  38.3220000
 133.6759408  42.0399408  38.3110000 132.9579408  42.4469408  38.7970000
 133.3909408  41.1369408  38.1740000 124.4319408  29.9699408  39.1520000
 124.9539408  30.3289408  39.8690000 123.7079408  30.5879408  39.0490000
 123.1979408  45.2869408  37.9950000 122.5999408  45.4139408  37.2590000
 122.7259408  44.7069408  38.5910000 133.4919408  40.2479408  45.4210000
 134.1179408  40.9619408  45.5410000 134.0109408  39.5349408  45.0460000
 148.8019408  36.7519408  45.1170000 148.5949408  36.3399408  44.2790000
 147.9779408  37.1509408  45.3980000 126.3509408  42.5299408  50.8020000
 125.7639408  42.6359408  50.0530000 126.8079408  43.3679408  50.8690000
 122.1939408  32.4329408  45.0200000 121.9859408  32.0149408  44.1840000
 122.7589408  33.1699408  44.7850000 140.3539408  31.1919408  44.3940000
 141.2449408  31.0649408  44.0680000 140.3279408  32.1089408  44.6690000
 132.9529408  48.1909408  34.7110000 132.8259408  48.4779408  35.6150000
 133.8859408  48.3269408  34.5450000 131.2079408  43.2309408  39.6310000
 131.4929408  43.1859408  40.5430000 130.4689408  43.8389408  39.6400000
 125.2889408  46.5969408  31.2440000 126.1979408  46.4009408  31.4730000
 125.0949408  46.0109408  30.5130000 125.9609408  31.2959408  40.8390000
 126.7089408  31.8909408  40.8830000 125.2019408  31.8499408  41.0230000
 134.0369408  39.3019408  40.0320000 133.0859408  39.2279408  39.9500000
 134.3769408  38.5189408  39.5980000 133.8409408  45.9929408  49.9150000
 133.3829408  45.6059408  49.1690000 134.1529408  46.8389408  49.5910000
 137.9259408  43.8949408  44.1400000 136.9729408  43.9149408  44.2200000
 138.2449408  44.1439408  45.0080000 137.9639408  34.7779408  30.3340000
 137.0519408  35.0459408  30.4500000 138.1979408  34.3589408  31.1630000
 126.0819408  41.7559408  33.1260000 125.2619408  42.2489408  33.0890000
 126.7199408  42.3779408  33.4750000 140.7849408  41.9599408  47.6010000
 141.3309408  41.2469408  47.2700000 140.9109408  42.6709408  46.9720000
 136.0959408  40.7469408  39.5820000 135.3069408  40.3579408  39.9590000
 136.3329408  40.1619408  38.8630000 131.8799408  41.9409408  33.1400000
 131.5959408  41.9629408  34.0530000 132.2839408  41.0799408  33.0340000
 130.6029408  48.1769408  42.3180000 129.6709408  48.0139408  42.4610000
 130.6839408  49.1309408  42.3230000 136.8019408  50.5669408  45.9690000
 137.5409408  49.9729408  45.8380000 136.7199408  51.0359408  45.1380000
 126.3819408  33.8779408  36.2780000 126.8239408  34.1609408  37.0780000
 126.7769408  34.4079408  35.5850000 137.8219408  40.6709408  54.7140000
 137.0509408  40.2079408  54.3860000 138.5589408  40.2549408  54.2680000
 140.9929408  46.8169408  31.4860000 141.3499408  47.6909408  31.3270000
 140.4049408  46.9299408  32.2320000 147.1529408  43.0869408  46.5300000
 147.5009408  42.5009408  47.2020000 146.4709408  42.5749408  46.0950000
 148.4819408  40.9349408  39.6410000 148.8959408  41.1749408  40.4700000
 148.9019408  41.4979408  38.9910000 134.8989408  56.5689408  38.8670000
 134.8359408  56.8249408  39.7880000 134.8469408  55.6129408  38.8800000
 126.4319408  39.2409408  39.6680000 125.6539408  39.7959408  39.6110000
 126.1929408  38.4429408  39.1960000 137.9739408  40.1959408  34.3400000
 138.5639408  40.9399408  34.4650000 138.2259408  39.5729408  35.0210000
 134.5639408  41.3319408  42.5050000 135.3129408  41.9219408  42.4160000
 134.8419408  40.5249408  42.0710000 125.8949408  49.3489408  40.4970000
 125.2319408  49.5939408  41.1420000 125.4229408  48.8129408  39.8600000
 130.5329408  34.8369408  41.0850000 130.4469408  35.5079408  40.4070000
 131.3799408  35.0149408  41.4930000 128.3729408  53.4639408  43.1860000
 129.1639408  53.9339408  42.9220000 127.6539408  53.9979408  42.8490000
 128.0019408  43.8009408  34.2870000 128.6839408  44.4149408  34.0160000
 127.9259408  43.9279408  35.2330000 128.5919408  50.0079408  41.6570000
 127.6919408  49.6829408  41.6220000 128.5009408  50.9549408  41.7650000
 128.5059408  59.5499408  34.7200000 129.2599408  59.8159408  34.1930000
 128.6619408  59.9459408  35.5770000 124.0379408  57.2559408  39.9530000
 124.9729408  57.0479408  39.9550000 123.9999408  58.1869408  39.7350000
 137.8569408  35.7969408  36.3200000 138.7739408  35.6119408  36.1180000
 137.3679408  35.4069408  35.5960000 144.8209408  37.4299408  38.6100000
 144.9309408  36.7309408  37.9650000 145.4989408  38.0679408  38.3900000
 129.6499408  41.8419408  37.8760000 130.4039408  42.2779408  38.2730000
 129.2779408  41.3139408  38.5820000 137.8409408  41.3329408  51.0730000
 137.5779408  40.4969408  51.4570000 137.0239408  41.8229408  50.9800000
 136.4069408  33.6289408  49.0480000 137.1099408  34.2789408  49.0450000
 136.1969408  33.5069408  49.9740000 131.6449408  38.1269408  53.6070000
 131.9199408  37.4939408  54.2710000 131.9309408  38.9729408  53.9510000
 138.3389408  38.6359408  47.0160000 138.1949408  39.4509408  47.4970000
 139.2549408  38.4159408  47.1850000 127.8239408  39.7049408  31.9020000
 128.6989408  39.3949408  32.1340000 127.3699408  39.7939408  32.7400000
 127.4669408  39.5539408  56.4890000 127.0789408  40.1509408  57.1290000
 127.8689408  40.1279408  55.8380000 133.4879408  38.3599408  47.7820000
 132.5719408  38.4729408  48.0380000 133.7179408  39.1799408  47.3450000
 147.1329408  43.4899408  36.5760000 146.2129408  43.7239408  36.4540000
 147.5309408  44.2739408  36.9540000 125.3919408  39.8369408  51.5440000
 124.4879408  40.0839408  51.7380000 125.8819408  40.6569408  51.5990000
 135.6989408  43.6459408  51.5090000 134.9289408  44.2119408  51.4530000
 135.7449408  43.3939408  52.4310000 125.3759408  35.8509408  34.5400000
 125.9379408  36.5929408  34.3170000 125.1269408  36.0039408  35.4520000
 141.4999408  50.8909408  51.6630000 141.5299408  51.8449408  51.5890000
 141.2169408  50.5929408  50.7990000 136.1989408  42.7839408  54.3270000
 136.9519408  42.3809408  54.7590000 135.5079408  42.1229408  54.3830000
 140.3079408  42.6819408  51.5200000 139.5659408  42.7069408  52.1230000
 140.0339408  43.2229408  50.7790000 143.5869408  41.2759408  33.3410000
 142.6949408  41.6219408  33.3230000 144.1119408  41.9439408  32.9000000
 127.8799408  56.0279408  53.7110000 128.5289408  56.2299408  53.0370000
 127.0729408  55.8609408  53.2240000 138.4169408  44.7709408  50.7260000
 138.8399408  45.1919408  51.4750000 137.5249408  44.5919408  51.0240000
 134.9759408  45.1649408  53.9550000 135.6309408  45.7189408  53.5300000
 135.4869408  44.4979408  54.4130000 140.1269408  47.4139408  47.2570000
 140.8569408  48.0169408  47.1180000 140.2649408  47.0689408  48.1390000
 137.7229408  39.0149408  44.5310000 138.2079408  39.8399408  44.5330000
 137.7629408  38.7109408  45.4380000 137.0589408  34.2909408  33.6940000
 137.3229408  33.4279408  34.0130000 136.3329408  34.1129408  33.0950000
 132.1429408  43.0499408  53.4810000 132.7959408  43.1569408  52.7890000
 131.8279408  43.9369408  53.6530000 129.2999408  34.7489408  46.6790000
 128.4779408  34.7659408  46.1890000 129.0309408  34.7099408  47.5970000
 130.2849408  39.8869408  42.5980000 130.8409408  39.1149408  42.4900000
 130.1829408  39.9779408  43.5460000 131.5199408  40.6549408  54.6330000
 131.7749408  41.4879408  54.2350000 130.7539408  40.3749408  54.1320000
 148.8309408  37.2719408  32.2880000 148.8699408  36.9779408  33.1980000
 149.5399408  36.7969408  31.8530000 132.8319408  36.0959408  55.8560000
 132.2219408  36.7999408  56.0740000 132.2899408  35.4319408  55.4300000
 142.0739408  39.3869408  59.4840000 142.9599408  39.0269408  59.4310000
 141.4999408  38.6319408  59.3590000 137.8369408  35.8009408  48.3520000
 138.7399408  35.6199408  48.0890000 137.7859408  36.7559408  48.3950000
 135.8959408  49.4069408  54.8660000 135.5879408  48.8379408  55.5710000
 136.8499408  49.3899408  54.9430000 132.3099408  47.8379408  48.4750000
 131.5999408  47.7869408  47.8350000 132.9599408  48.4099408  48.0670000
 141.5769408  40.0929408  43.5580000 140.8019408  40.5149408  43.9290000
 141.6999408  40.5189408  42.7100000 123.0429408  42.8729408  55.6090000
 123.5349408  42.7249408  54.8020000 122.7319408  42.0039408  55.8640000
 134.6799408  59.2389408  56.7010000 135.3729408  59.7719408  56.3100000
 134.3379408  59.7769408  57.4150000 125.6739408  53.6199408  30.0820000
 126.0949408  53.8689408  30.9050000 126.3839408  53.2649408  29.5480000
 123.0279408  48.2679408  31.4330000 123.1569408  49.2159408  31.4620000
 123.8729408  47.9189408  31.1520000 125.6639408  38.1749408  48.2520000
 126.2629408  37.8789408  48.9380000 125.1889408  37.3859408  47.9920000
 125.9109408  36.2639408  53.1760000 125.8639408  35.3079408  53.1610000
 125.2579408  36.5469408  52.5370000 123.5549408  42.7819408  33.2750000
 122.7219408  42.4139408  33.5720000 123.4619408  43.7249408  33.4110000
 123.4729408  39.6029408  57.1470000 123.7089408  38.7169408  56.8730000
 124.0979408  39.8149408  57.8400000 140.1159408  33.8369408  45.0270000
 140.6079408  34.5009408  44.5440000 139.2639408  33.8059408  44.5920000
 129.1499408  59.6889408  52.5040000 129.9349408  60.2339408  52.5540000
 129.1679408  59.3219408  51.6200000 130.2899408  46.9219408  56.2360000
 130.6129408  46.3839408  55.5120000 130.5349408  47.8159408  55.9980000
 125.6959408  36.5609408  57.9650000 126.2729408  36.7839408  57.2350000
 126.2299408  36.7069408  58.7460000 129.0229408  40.0999408  53.4030000
 128.3649408  40.6929408  53.7660000 128.5369408  39.3039408  53.1870000
 122.6359408  39.1879408  42.6550000 122.1249408  39.8089408  43.1730000
 121.9839408  38.6069408  42.2650000 130.1199408  31.7629408  33.4120000
 129.5699408  31.8339408  32.6310000 130.9739408  32.0939408  33.1340000
 135.5569408  55.5499408  56.2860000 134.8219408  54.9969408  56.0220000
 136.0899408  55.6339408  55.4950000 127.1549408  37.1399408  55.5410000
 126.6739408  37.0259408  54.7220000 127.2739408  38.0859408  55.6200000
 134.3109408  40.8199408  55.0000000 133.4729408  40.6859408  54.5580000
 134.6099408  39.9379408  55.2200000 144.7679408  36.0699408  47.1460000
 143.8289408  36.0299408  46.9640000 145.1819408  35.7409408  46.3480000
 125.1569408  41.4689408  45.1180000 124.3929408  41.0489408  45.5120000
 125.9069408  41.0229408  45.5130000 136.3049408  47.8459408  48.6500000
 136.4699408  48.5339408  48.0040000 136.6669408  47.0539408  48.2540000
 131.4229408  31.4139408  52.3640000 131.7979408  31.2949408  53.2370000
 132.1729408  31.6199408  51.8060000 124.3739408  32.0349408  52.5920000
 125.0449408  32.5869408  52.9950000 123.7539408  32.6539408  52.2080000
 127.8019408  46.5439408  37.0640000 127.6149408  45.6139408  37.1890000
 127.8329408  46.9049408  37.9500000 121.7749408  30.6259408  58.9360000
 122.5749408  31.0719408  59.2140000 121.1079408  31.3129408  58.9280000
 132.7309408  42.2139408  48.9580000 132.2289408  41.4239408  48.7610000
 132.6519408  42.7509408  48.1690000 123.0389408  57.9559408  58.5700000
 123.2659408  57.7619408  57.6600000 122.9049408  58.9029408  58.5870000
 128.8229408  49.2789408  58.8730000 129.0599408  48.7649408  59.6450000
 128.2279408  49.9509408  59.2050000 130.8119408  34.5099408  54.7060000
 129.9129408  34.5729408  55.0290000 130.7219408  34.4639408  53.7540000
 128.1589408  41.4079408  59.5170000 129.1069408  41.5379408  59.5250000
 127.9899408  40.8219408  60.2550000 127.4109408  38.2469408  52.5390000
 127.0039408  37.3889408  52.6570000 126.8979408  38.6629408  51.8460000
 125.9589408  32.4859408  59.6520000 125.4029408  32.4139408  60.4270000
 125.4749408  32.0279408  58.9650000 148.9339408  29.9049408  57.3680000
 149.3039408  30.6489408  57.8430000 149.4589408  29.8439408  56.5700000
 138.8269408  33.5309408  52.3500000 138.8589408  32.6169408  52.6340000
 139.3369408  33.5479408  51.5400000 133.0339408  44.4019408  33.2410000
 133.4299408  44.6769408  32.4150000 132.6019408  43.5729408  33.0360000
 134.6579408  31.6439408  54.3280000 135.2989408  31.5509408  55.0330000
 133.8909408  32.0299408  54.7510000 129.2199408  40.8319408  50.8010000
 128.2959408  40.9889408  50.6070000 129.2279408  40.5439408  51.7140000
 128.1889408  47.1529408  53.5900000 129.0689408  47.0679408  53.9560000
 127.9749408  48.0809408  53.6910000 127.2109408  38.0059408  35.3860000
 126.6419408  38.7579408  35.5510000 127.9689408  38.1489408  35.9520000
 141.0649408  39.6399408  32.0140000 141.5329408  39.0169408  32.5690000
 141.5449408  39.6309408  31.1850000 124.8949408  48.8529408  36.4910000
 125.2919408  49.6979408  36.7040000 125.4089408  48.5259408  35.7530000
 120.8779408  59.1329408  31.2170000 121.1779408  59.6449408  30.4660000
 121.0379408  58.2229408  30.9670000 126.9089408  34.5699408  45.4710000
 126.4269408  35.1219408  44.8560000 126.2819408  34.3849408  46.1700000
 135.2509408  38.2789408  55.3330000 134.5369408  37.6459408  55.4040000
 135.7219408  38.2039408  56.1630000 136.1519408  46.8349408  36.9130000
 135.4469408  46.5409408  36.3350000 135.7099408  47.0769408  37.7270000
 121.6169408  39.6609408  55.2060000 122.3259408  39.5369408  55.8370000
 122.0529408  39.9679408  54.4120000 135.4429408  30.1609408  43.2290000
 136.1079408  29.5109408  43.4580000 135.5879408  30.8799408  43.8430000
 144.0269408  49.3799408  51.4100000 144.2849408  48.4959408  51.6720000
 143.1719408  49.5119408  51.8210000 134.3959408  48.1949408  40.7400000
 134.3709408  48.1429408  41.6950000 134.2869408  47.2889408  40.4480000
 125.1149408  34.0059408  56.8730000 124.1869408  34.1409408  56.6820000
 125.3489408  34.7299408  57.4530000 124.5679408  42.7609408  53.3450000
 124.5269408  43.7069408  53.4870000 124.8839408  42.6679408  52.4460000
 141.5419408  32.2789408  54.3060000 141.1949408  32.1159408  53.4290000
 141.4429408  31.4439408  54.7630000 134.6329408  53.1429408  40.1660000
 134.8209408  53.6079408  39.3500000 134.7559408  52.2189408  39.9490000
 135.3159408  42.0549408  46.3340000 134.9349408  42.8129408  46.7780000
 136.1729408  41.9419408  46.7450000 142.2929408  47.8109408  53.8080000
 142.1829408  47.0259408  54.3450000 142.7159408  48.4419408  54.3890000
 129.7159408  47.2639408  30.6440000 130.4809408  46.8889408  30.2080000
 130.0779408  47.7609408  31.3780000 129.6429408  57.8269408  54.9720000
 129.4569408  57.5769408  54.0670000 130.3899408  58.4219408  54.9080000
 127.2109408  41.8149408  54.3940000 126.3699408  42.1359408  54.0660000
 127.5599408  42.5409408  54.9100000 120.1669408  38.8079408  50.3710000
 119.8829408  38.0049408  50.8070000 119.9809408  39.5029408  51.0020000
 131.3649408  39.9299408  48.7550000 130.7509408  39.2719408  48.4300000
 131.2129408  39.9549408  49.7000000 134.3869408  50.9349408  31.0510000
 133.5169408  51.2199408  30.7720000 134.8489408  50.7409408  30.2360000
 130.7769408  39.9669408  45.3550000 131.7099408  40.1599408  45.2610000
 130.7469408  39.1889408  45.9110000 123.5569408  37.1909408  56.0440000
 124.3569408  36.6719408  56.1280000 123.4109408  37.2549408  55.1000000
 139.8279408  45.7489408  43.0870000 140.5869408  45.7009408  43.6680000
 139.2939408  44.9909408  43.3260000 120.9909408  44.1799408  59.6390000
 121.5389408  44.9439408  59.4570000 120.9489408  44.1369408  60.5940000
 131.3459408  43.1939408  58.8840000 130.7059408  43.7409408  58.4290000
 131.9039408  42.8469408  58.1880000 148.4329408  31.3169408  47.7720000
 148.3759408  30.3929408  48.0160000 148.3789408  31.7879408  48.6040000
 136.9629408  46.6139408  52.6300000 136.8069408  47.5369408  52.8310000
 137.8629408  46.5879408  52.3060000 146.9299408  41.9079408  31.8610000
 146.9209408  42.4829408  32.6270000 147.6339408  41.2839408  32.0360000
 135.8339408  33.3109408  31.4930000 136.3929408  32.5349408  31.4550000
 135.4889408  33.4019408  30.6050000 120.8749408  33.4179408  53.9600000
 120.5559408  32.5409408  53.7490000 121.6379408  33.5389408  53.3940000
 133.8929408  49.7199408  47.2500000 133.8199408  50.5249408  46.7370000
 134.7049408  49.3139408  46.9450000 130.5189408  37.1779408  45.9270000
 130.5439408  36.3239408  46.3590000 130.1409408  36.9999408  45.0660000
 135.9109408  57.6449408  50.9300000 135.4609408  56.9469408  50.4540000
 135.2979408  57.8989408  51.6190000 135.5579408  34.1889408  56.1150000
 134.8629408  34.8469408  56.1260000 135.7909408  34.1009408  55.1910000
 137.6369408  60.0739408  52.6510000 137.4279408  59.3739408  52.0330000
 137.3079408  59.7569408  53.4920000 129.3779408  38.0839408  58.2570000
 128.8019408  38.1769408  57.4980000 130.1869408  38.5259408  58.0000000
 127.9469408  37.0969408  49.7360000 127.9239408  36.1409408  49.7090000
 128.7869408  37.3059408  50.1460000 136.8989408  59.9439408  35.6780000
 136.7499408  59.2089408  36.2740000 136.6159408  59.6199408  34.8230000
 129.8299408  57.2289408  35.4010000 128.9329408  57.4469408  35.1470000
 130.3679408  57.5429408  34.6740000 138.4289408  59.3959408  58.3290000
 137.9429408  58.5779408  58.2260000 138.7299408  59.3839408  59.2380000
 121.1219408  36.0539408  39.6410000 120.6489408  36.3209408  38.8530000
 121.9209408  36.5809408  39.6320000 131.1519408  52.9069408  50.7830000
 131.1849408  51.9589408  50.9060000 130.5209408  53.0349408  50.0740000
 131.0869408  55.7069408  37.3250000 130.8939408  56.1889408  38.1280000
 130.7599408  56.2699408  36.6230000 122.6749408  48.7829408  40.9760000
 123.1839408  49.3299408  41.5740000 123.0549408  48.9529408  40.1140000
 133.9669408  45.5319408  35.7910000 134.1179408  44.5939408  35.6770000
 133.3829408  45.7699408  35.0710000 122.1679408  34.6769408  42.0900000
 121.6919408  35.0179408  41.3330000 121.8439408  35.1909408  42.8290000
 129.7219408  58.0699408  38.6160000 129.4219408  58.0619408  37.7080000
 129.1469408  58.6979408  39.0530000 131.7279408  50.3879408  51.2710000
 131.6209408  49.5149408  50.8940000 132.3419408  50.2629408  51.9960000
 148.0529408  55.8899408  42.2050000 148.2489408  56.7309408  42.6180000
 147.0989408  55.8779408  42.1250000 133.8599408  36.7389408  32.4700000
 133.0679408  37.2019408  32.1940000 133.5509408  36.0939408  33.1060000
 124.9999408  59.5199408  48.2440000 125.1339408  59.6689408  49.1800000
 124.6149408  60.3359408  47.9240000 130.5059408  49.8669408  36.1100000
 129.8559408  49.5139408  35.5030000 129.9949408  50.3779408  36.7380000
 133.0909408  35.1259408  34.6640000 133.6829408  35.1169408  35.4160000
 132.3979408  34.5079408  34.8970000 123.3269408  54.6049408  49.3680000
 124.2059408  54.2289408  49.3230000 123.4169408  55.4729408  48.9750000
 120.0379408  51.4779408  34.6990000 120.9309408  51.1549408  34.5830000
 119.4899408  50.8369408  34.2450000 135.7609408  55.8819408  34.7460000
 135.6409408  55.0999408  34.2060000 134.9199408  55.9989408  35.1890000
 134.2179408  50.3289408  43.1910000 134.4609408  51.2159408  42.9250000
 135.0449408  49.9189408  43.4450000 137.6079408  51.4719408  51.4500000
 137.1129408  52.1989408  51.8280000 137.2049408  50.6879408  51.8230000
 132.8429408  54.9729408  51.9030000 132.4879408  54.2539408  51.3800000
 133.3269408  55.5089408  51.2750000 125.7979408  51.3969408  36.7650000
 126.4539408  51.7799408  37.3470000 124.9819408  51.4349408  37.2640000
 137.4849408  57.6719408  37.7400000 136.6389408  57.2889408  37.9700000
 137.8719408  57.0489408  37.1250000 122.3099408  48.7869408  35.5240000
 121.6629408  48.6259408  36.2120000 123.1549408  48.6519408  35.9530000
 134.3059408  58.7819408  37.3720000 134.7559408  58.1469408  37.9280000
 133.9669408  58.2639408  36.6420000 144.3189408  54.7159408  44.1060000
 144.8969408  53.9829408  43.8980000 144.5489408  55.3919408  43.4680000
 126.4959408  48.9039408  32.3800000 125.9039408  49.5189408  31.9470000
 125.9969408  48.0889408  32.4350000 125.8519408  57.3879408  59.9390000
 125.2559408  57.5509408  59.2070000 125.3619408  56.8089408  60.5230000
 136.4369408  49.0669408  51.2430000 136.5039408  48.3559408  50.6060000
 135.6939408  49.5899408  50.9420000 127.2649408  53.0889408  33.3920000
 127.5729408  53.8519408  32.9040000 127.6459408  53.1919408  34.2640000
 130.3759408  53.4779408  47.1180000 129.6279408  53.2069408  47.6500000
 130.5139408  52.7509408  46.5100000 135.4449408  55.1009408  44.0140000
 136.2459408  55.2109408  43.5020000 135.0809408  54.2679408  43.7140000
 129.1669408  35.4379408  35.7480000 128.8509408  35.6709408  34.8750000
 129.4189408  34.5179408  35.6750000 124.2729408  50.1469408  42.5690000
 123.8439408  50.9559408  42.8460000 125.0339408  50.0699408  43.1450000
 123.2469408  45.4839408  33.2100000 123.6359408  46.1419408  32.6340000
 123.7999408  45.4919408  33.9910000 124.1789408  47.7809408  38.9290000
 124.2309408  48.1619408  38.0530000 123.5919408  47.0319408  38.8310000
 131.1639408  59.3629408  44.0990000 131.9599408  59.0219408  44.5070000
 130.8289408  60.0059408  44.7250000 131.2709408  59.4239408  30.7540000
 131.1439408  59.1009408  29.8620000 130.7259408  60.2099408  30.8040000
 130.1639408  44.3359408  47.9330000 129.7059408  43.4989408  47.8530000
 130.9369408  44.2409408  47.3770000 126.7049408  54.8669408  37.0240000
 127.3139408  54.3839408  36.4660000 126.0519408  55.2189408  36.4190000
 120.7809408  47.7779408  33.0700000 121.3749408  47.8329408  33.8190000
 121.3059408  48.0689408  32.3250000 126.9129408  56.0559408  43.0170000
 126.7609408  56.9919408  43.1450000 127.8609408  55.9539408  43.1010000
 129.9689408  55.5049408  41.5150000 130.0609408  56.2039408  42.1630000
 129.5309408  55.9229408  40.7730000 132.8559408  32.0519408  39.6080000
 133.6339408  31.5559408  39.8640000 132.6389408  32.5739408  40.3800000
 130.9059408  52.2719408  31.9450000 130.8709408  51.3879408  31.5790000
 130.4339408  52.8129408  31.3120000 120.6149408  44.7429408  32.4330000
 119.9859408  45.4539408  32.5520000 121.4659408  45.1429408  32.6100000
 135.8529408  53.8829408  37.9390000 135.9139408  53.7729408  36.9900000
 136.7569408  54.0099408  38.2250000 127.6779408  45.6369408  48.2270000
 127.3809408  45.6059408  49.1360000 128.4549408  45.0779408  48.2080000
 124.3649408  52.5619408  40.9050000 123.8259408  53.0119408  41.5560000
 125.0559408  53.1889408  40.6910000 131.6299408  53.2589408  41.2250000
 131.9139408  53.2529408  40.3110000 130.9499408  53.9319408  41.2610000
 123.3079408  52.3489408  44.1740000 123.6449408  53.1049408  43.6930000
 123.8179408  52.3319408  44.9840000 140.0859408  33.0319408  31.4180000
 140.4329408  32.3479408  30.8450000 139.2249408  32.7079408  31.6830000
 148.1769408  32.4219408  50.1510000 147.3749408  32.2089408  50.6290000
 148.4289408  33.2859408  50.4760000 139.2209408  58.9019408  39.3070000
 138.6819408  59.2899408  39.9960000 138.5979408  58.6619408  38.6210000
 120.9919408  29.9949408  55.7370000 121.7769408  30.0659408  55.1940000
 121.2419408  30.3889408  56.5730000 120.7819408  46.6869408  45.9170000
 120.1779408  46.2529408  46.5200000 120.3069408  47.4619408  45.6180000
 126.7389408  54.1779408  39.9850000 126.8389408  55.0859408  40.2700000
 126.8689408  54.2079408  39.0370000 130.4329408  31.4439408  45.7220000
 130.5989408  31.4719408  46.6650000 130.7079408  32.3039408  45.4050000
 131.3089408  49.2199408  55.3400000 132.0399408  49.3309408  54.7320000
 131.4799408  49.8519408  56.0380000 123.3309408  49.3729408  48.2010000
 122.4419408  49.5659408  48.5000000 123.8949408  49.6769408  48.9110000
 146.3379408  38.5209408  44.7070000 145.9319408  39.3879408  44.7270000
 145.5999408  37.9109408  44.7000000 123.1059408  51.9459408  38.1800000
 123.4189408  52.7029408  38.6760000 122.1519408  52.0229408  38.2010000
 135.4369408  53.2539408  50.0090000 136.0059408  53.1119408  49.2530000
 135.0009408  52.4129408  50.1430000 127.0619408  51.4499408  39.2770000
 127.2629408  52.2119408  39.8210000 126.5489408  50.8769408  39.8470000
 132.4839408  56.0199408  59.2340000 132.1589408  55.9759408  60.1330000
 131.7009408  56.1619408  58.7020000 132.0659408  58.8869408  39.7040000
 131.2279408  58.5389408  39.3980000 132.5209408  59.1529408  38.9050000
 131.2699408  56.0949408  46.5260000 131.8939408  56.0249408  45.8040000
 131.2699408  55.2259408  46.9290000 130.8659408  48.4719408  32.7640000
 130.6719408  49.4039408  32.8690000 131.5619408  48.2989408  33.3990000
 133.6439408  30.4429408  31.8470000 132.8629408  30.2199408  31.3410000
 133.6489408  31.3999408  31.8730000 123.1739408  30.5829408  34.5740000
 124.1289408  30.6499408  34.5680000 122.8779408  31.4079408  34.9580000
 129.4209408  51.4549408  37.9740000 128.8169408  51.4819408  38.7160000
 130.2109408  51.8929408  38.2920000 148.8549408  53.9129408  40.4620000
 148.1329408  53.2899408  40.3720000 148.5459408  54.5469408  41.1090000
 129.8059408  45.8759408  51.7940000 128.8959408  46.1509408  51.9020000
 129.7489408  44.9669408  51.5000000 127.9939408  51.3219408  44.6600000
 128.8919408  51.3319408  44.9910000 127.9779408  52.0019408  43.9870000
 145.4639408  55.1709408  38.5830000 144.5769408  55.4189408  38.3240000
 145.9009408  54.9499408  37.7600000 144.4759408  50.8279408  49.0240000
 145.3199408  51.0919408  48.6570000 144.7019408  50.2359408  49.7420000
 128.2409408  49.7249408  55.2630000 128.0479408  49.1849408  56.0300000
 129.1959408  49.7239408  55.2030000 132.9509408  31.3049408  42.5350000
 133.5739408  30.6049408  42.7320000 132.1069408  30.9639408  42.8300000
 149.8429408  56.8959408  38.9490000 149.2369408  56.1979408  38.6960000
 150.4319408  56.4839408  39.5810000 133.2739408  56.0209408  35.5640000
 133.0779408  55.8549408  36.4860000 132.5129408  55.6839408  35.0920000
 133.9679408  53.1959408  42.7510000 133.0609408  53.1179408  42.4530000
 134.4749408  53.3119408  41.9480000 127.9659408  53.2009408  54.6000000
 128.6309408  52.7009408  54.1270000 127.9549408  54.0549408  54.1660000
 148.8189408  58.9629408  49.5480000 149.3499408  58.7979408  50.3270000
 147.9169408  58.8389408  49.8420000 127.1999408  32.1849408  49.7970000
 127.7519408  31.4189408  49.6400000 126.4489408  31.8439408  50.2840000
 136.6659408  42.2829408  31.1970000 136.1439408  43.0379408  30.9240000
 136.2319408  41.9649408  31.9890000 131.4439408  45.8639408  53.9440000
 132.0879408  46.3889408  53.4680000 130.7859408  45.6379408  53.2870000
 134.5009408  42.8519408  35.8720000 134.3729408  42.6739408  36.8040000
 133.6179408  42.8409408  35.5020000 130.8959408  49.7499408  39.9370000
 130.1039408  49.8069408  40.4710000 131.6099408  49.9329408  40.5480000
 139.0259408  44.6979408  35.6060000 139.1789408  45.5409408  36.0320000
 138.8219408  44.0999408  36.3250000 126.7689408  58.4729408  44.2330000
 127.3599408  59.2059408  44.4070000 125.9639408  58.6979408  44.6990000
 129.7699408  52.6009408  56.6800000 129.2829408  52.6389408  55.8560000
 129.7329408  53.4939408  57.0220000 147.3529408  30.3099408  42.8330000
 147.5099408  29.6729408  43.5300000 147.9369408  31.0399408  43.0390000
 132.1129408  48.3489408  37.7370000 131.7449408  48.5769408  38.5910000
 131.5649408  48.8179408  37.1070000 144.6629408  49.5749408  42.4850000
 144.9049408  48.8659408  43.0800000 144.1909408  49.1409408  41.7740000
 121.4539408  59.7109408  45.8930000 121.4329408  60.6619408  46.0040000
 122.2849408  59.5399408  45.4500000 126.8329408  50.5419408  47.8900000
 127.4509408  49.8449408  47.6710000 126.2749408  50.1639408  48.5700000
 145.2199408  44.8659408  31.3530000 145.3179408  44.0859408  30.8060000
 144.4369408  45.3009408  31.0120000 138.8679408  57.6099408  33.3490000
 139.7269408  57.3279408  33.6620000 138.2529408  57.2769408  34.0020000
 128.3579408  34.1779408  31.8600000 128.4489408  34.8209408  32.5630000
 127.5369408  33.7239408  32.0540000 131.2019408  58.7629408  33.4690000
 131.2119408  59.5939408  33.9450000 131.6049408  58.9659408  32.6240000
 126.1329408  53.5059408  50.1000000 126.3269408  53.2889408  49.1880000
 126.9599408  53.8419408  50.4480000 130.2109408  58.4339408  41.9620000
 131.0079408  58.2959408  41.4500000 130.5229408  58.6039408  42.8510000
 137.3879408  52.3639408  57.4260000 137.6389408  52.8729408  58.1970000
 138.1209408  52.4709408  56.8190000 121.6809408  58.4499408  37.5820000
 122.3499408  57.9409408  37.1260000 120.8959408  57.9039408  37.5440000
 145.9239408  52.7609408  43.2040000 145.7279408  52.7439408  42.2670000
 146.0819408  51.8459408  43.4340000 139.3099408  56.6769408  44.0320000
 139.6109408  56.8749408  44.9190000 139.3619408  55.7229408  43.9680000
 123.3539408  54.7089408  39.0660000 123.7559408  55.5449408  39.3010000
 122.5179408  54.9489408  38.6650000 121.4129408  56.7549408  30.3960000
 122.1889408  57.0679408  29.9310000 121.2349408  55.8959408  30.0140000
 149.6089408  57.8679408  45.3230000 150.1049408  57.1339408  44.9590000
 150.2649408  58.5469408  45.4810000 142.3659408  44.6299408  38.6880000
 141.7399408  44.6659408  39.4110000 143.1379408  45.0919408  39.0160000
 121.5119408  49.0599408  43.6060000 120.8219408  49.4449408  43.0660000
 122.0049408  48.5029408  43.0030000 123.9449408  56.8669408  48.1460000
 123.7629408  56.8199408  47.2080000 124.4529408  57.6719408  48.2510000
 133.2799408  52.0519408  45.6120000 132.3279408  51.9589408  45.6370000
 133.5199408  51.8259408  44.7140000 132.9559408  51.3659408  36.3640000
 133.4859408  51.8059408  35.6990000 132.4029408  50.7609408  35.8690000
 123.4409408  36.1809408  31.9050000 124.0029408  36.8479408  31.5100000
 123.9759408  35.7989408  32.6010000 137.0119408  53.5979408  30.0990000
 137.4669408  54.3679408  30.4400000 136.1409408  53.9179408  29.8630000
 127.1949408  52.4749408  58.1130000 126.6079408  52.3649408  57.3650000
 128.0739408  52.3999408  57.7400000 138.2589408  42.5979408  37.4360000
 137.7069408  41.9699408  36.9700000 137.6589408  43.0499408  38.0290000
 120.1369408  33.5589408  35.8370000 119.9919408  32.6449408  35.5950000
 120.0729408  33.5669408  36.7920000 135.3399408  50.8529408  58.1340000
 134.7079408  51.5289408  57.8920000 136.1799408  51.1839408  57.8140000
 139.9039408  30.2909408  56.3150000 139.3069408  30.0529408  57.0240000
 140.2959408  31.1169408  56.5980000 146.3759408  53.1479408  52.1470000
 145.9069408  53.8409408  51.6830000 147.2419408  53.1299408  51.7400000
 128.6959408  34.9359408  56.2190000 128.5659408  34.8349408  57.1620000
 127.9669408  35.4869408  55.9330000 125.0549408  30.9999408  57.6170000
 125.2369408  31.8089408  57.1400000 124.9239408  30.3429408  56.9330000
 132.6159408  52.0489408  54.5270000 132.7129408  51.7699408  55.4380000
 133.1399408  51.4229408  54.0270000 124.7479408  56.4299408  32.0810000
 124.8309408  55.7089408  32.7050000 123.9279408  56.8609408  32.3190000
 129.2759408  56.4629408  44.7030000 129.7309408  56.2569408  45.5190000
 129.1089408  57.4049408  44.7520000 143.3719408  59.3539408  46.9710000
 143.3079408  58.3989408  46.9860000 142.9949408  59.6059408  46.1290000
 136.2559408  53.4489408  52.4580000 135.9049408  53.5529408  51.5740000
 135.4959408  53.5559408  53.0320000 126.9949408  45.9949408  50.7340000
 126.4209408  45.7369408  51.4560000 126.9939408  46.9519408  50.7580000
 136.4109408  57.9309408  46.0400000 136.7929408  58.4529408  46.7440000
 136.9819408  58.0879408  45.2870000 134.1419408  54.1589408  54.0840000
 133.6309408  53.3779408  54.2940000 133.5819408  54.6599408  53.4910000
 133.5379408  46.9969408  52.3460000 134.1009408  46.3869408  52.8230000
 133.4289408  46.5979408  51.4830000 133.4829408  49.4799408  53.5240000
 133.6019408  48.6709408  53.0260000 134.1959408  49.4769408  54.1620000
 125.5179408  50.8639408  30.6340000 124.6129408  50.9029408  30.3240000
 125.8689408  51.7369408  30.4600000 123.9199408  53.7329408  57.9040000
 123.7749408  52.7969408  57.7640000 124.6069408  53.7729408  58.5690000
 143.3409408  55.3679408  56.2690000 143.8739408  55.7849408  55.5910000
 142.6439408  55.9989408  56.4470000 141.0999408  57.1969408  56.2780000
 140.7519408  57.3389408  55.3980000 141.3499408  58.0699408  56.5810000
 134.6979408  55.7839408  49.6430000 134.8279408  55.7939408  48.6940000
 134.6369408  54.8559408  49.8670000 131.6579408  59.4879408  55.1230000
 131.5199408  60.2759408  55.6490000 132.5939408  59.3049408  55.2060000
 125.6269408  55.5319408  52.0670000 126.1349408  55.9269408  51.3580000
 125.2669408  54.7309408  51.6870000 128.4599408  32.5539408  54.9290000
 128.0919408  31.8119408  55.4080000 128.4689408  33.2689408  55.5650000
 123.5699408  50.9729408  57.9310000 122.6959408  50.8599408  57.5580000
 124.1639408  50.6609408  57.2500000 144.5209408  47.0009408  52.3890000
 145.1209408  46.3069408  52.6620000 143.6929408  46.7869408  52.8180000
 131.6979408  50.0789408  59.7730000 130.8099408  49.8989408  59.4640000
 132.0089408  49.2409408  60.1130000 130.6369408  51.0749408  45.7480000
 131.0509408  50.3259408  46.1760000 130.8889408  50.9959408  44.8280000
 127.8009408  47.6069408  56.9660000 127.9509408  48.0929408  57.7770000
 128.6709408  47.3129408  56.6970000 134.6939408  57.6009408  59.4540000
 133.7959408  57.3609408  59.6810000 134.6029408  58.1929408  58.7070000
 134.6019408  58.8039408  53.5100000 135.1489408  58.3629408  54.1610000
 134.6489408  59.7299408  53.7450000 128.0119408  55.6129408  59.1090000
 127.3469408  55.9979408  59.6800000 127.5689408  55.4959408  58.2690000
 137.2359408  55.8399408  54.2300000 137.9919408  55.7569408  53.6490000
 136.6439408  55.1399408  53.9550000 136.3829408  55.0279408  46.5230000
 135.9809408  54.9789408  45.6560000 136.6939408  55.9299408  46.5930000
 119.8979408  55.6919408  52.9550000 119.7849408  54.8959408  53.4740000
 120.8379408  55.7319408  52.7780000 128.7329408  55.2859408  32.7840000
 129.4529408  55.3559408  32.1580000 128.2929408  56.1349408  32.7390000
 146.7709408  33.6649408  52.7270000 146.7729408  32.8369408  53.2070000
 147.3549408  34.2339408  53.2270000 125.4859408  47.0279408  55.4590000
 125.3769408  46.1209408  55.7470000 126.3439408  47.2849408  55.7970000
 129.9189408  33.5539408  51.8240000 129.1149408  33.4609408  52.3350000
 130.5089408  32.8899408  52.1800000 131.3379408  58.9519408  57.8980000
 130.3879408  58.9459408  57.7800000 131.6909408  58.7969408  57.0220000
 128.4839408  42.6569408  42.7750000 128.7579408  43.2109408  42.0450000
 129.2489408  42.1129408  42.9640000 124.8689408  52.0059408  34.4930000
 125.4839408  52.3369408  33.8380000 125.3879408  51.9349408  35.2950000
 121.1839408  53.8679408  32.2820000 121.7039408  53.3719408  31.6500000
 121.6219408  53.7219408  33.1200000 121.2759408  50.9209408  52.3260000
 121.5259408  50.2529408  51.6880000 121.9619408  51.5849408  52.2600000
 127.4129408  56.2019408  50.0570000 127.4249408  56.6489408  49.2110000
 128.2419408  56.4469408  50.4690000 130.8449408  32.1909408  58.1290000
 129.9649408  31.9919408  57.8090000 130.7209408  32.4099408  59.0520000
 132.1609408  51.0939408  57.1720000 131.3539408  51.5889408  57.0280000
 132.4389408  51.3399408  58.0540000 141.6459408  55.8579408  49.2480000
 141.8839408  55.4889408  48.3980000 141.1379408  55.1669408  49.6750000
 121.9099408  56.0429408  56.4380000 121.0299408  56.3809408  56.2760000
 121.8099408  55.4669408  57.1960000 146.5009408  53.4099408  33.8900000
 147.2679408  53.2959408  33.3290000 146.1529408  54.2679408  33.6490000
 132.1069408  58.3369408  52.1520000 132.8629408  58.3479408  52.7390000
 131.9139408  59.2609408  51.9920000 126.9049408  59.6589408  54.4020000
 127.4049408  59.1249408  55.0190000 127.5369408  59.8999408  53.7250000
 135.8789408  32.1039408  51.6990000 135.5149408  31.9559408  52.5720000
 136.7829408  31.7959408  51.7610000 128.8949408  51.6709408  49.8570000
 128.2309408  51.5909408  49.1720000 128.9859408  50.7849408  50.2080000
 139.3409408  49.3989408  50.3370000 139.0289408  49.1119408  49.4790000
 138.5439408  49.5879408  50.8320000 134.5349408  33.3569408  58.7370000
 134.1719408  32.4879408  58.5610000 135.0539408  33.5609408  57.9590000
 137.1019408  45.7249408  55.9070000 137.7749408  46.4049408  55.8650000
 136.2939408  46.1989408  56.1020000 133.0649408  31.5539408  50.0000000
 133.9649408  31.6039408  50.3230000 132.9399408  30.6309408  49.7800000
 128.2529408  31.2669408  58.1430000 127.5959408  31.4079408  58.8250000
 128.1889408  30.3329408  57.9390000 130.1359408  52.0139408  53.1660000
 130.2959408  52.4989408  52.3560000 130.9959408  51.9489408  53.5810000
 138.4869408  38.0279408  31.6070000 139.1999408  38.3819408  32.1380000
 138.0509408  38.7999408  31.2450000 135.1319408  47.2609408  56.3960000
 135.2409408  47.6919408  57.2440000 134.5449408  46.5269408  56.5740000
 127.2789408  56.4109408  56.2950000 126.3539408  56.2849408  56.0820000
 127.7199408  56.4259408  55.4460000 134.4529408  50.9099408  33.7780000
 134.3679408  50.7669408  32.8350000 135.0229408  50.2019408  34.0770000
 127.1399408  57.5469408  47.6840000 126.8289408  57.2759408  46.8200000
 126.5409408  58.2459408  47.9460000 145.0939408  33.0129408  55.4040000
 144.7599408  32.6939408  54.5660000 145.6369408  32.2969408  55.7340000
 135.7979408  58.7229408  33.2530000 135.6619408  57.7969408  33.0530000
 135.1299408  59.1799408  32.7420000 129.0859408  31.1759408  31.1750000
 128.4019408  30.5059408  31.1510000 128.6729408  31.9539408  30.8020000
 128.0329408  59.1679408  40.5370000 128.6119408  58.8459408  41.2270000
 127.5109408  59.8489408  40.9610000 132.8329408  46.8609408  43.8650000
 132.4649408  45.9809408  43.9370000 132.1939408  47.3459408  43.3420000
 128.4229408  58.5869408  57.7970000 128.0969408  58.0029408  57.1120000
 128.0209408  58.2599408  58.6020000 133.1219408  45.2349408  56.3590000
 132.9999408  44.2859408  56.3360000 133.2029408  45.4879408  55.4390000
 134.6709408  37.7959408  35.3550000 135.3629408  37.6749408  34.7050000
 134.3999408  36.9069408  35.5840000 132.2429408  36.3459408  37.8770000
 133.0639408  35.9189408  37.6340000 131.5769408  35.9019408  37.3520000
 130.7739408  36.2109408  59.9660000 131.1209408  36.8889408  60.5450000
 130.1539408  36.6719408  59.4000000 144.9609408  45.1169408  36.4150000
 144.0719408  45.3439408  36.1410000 145.4919408  45.8699408  36.1570000
 139.3769408  37.5459408  42.7920000 139.5639408  37.9789408  41.9590000
 138.9799408  38.2279408  43.3340000 149.9389408  42.9329408  50.1570000
 149.2409408  43.5489408  49.9330000 149.5489408  42.0699408  50.0180000
 143.4369408  38.0999408  44.6000000 143.0629408  38.4679408  43.7990000
 143.0709408  37.2169408  44.6520000 147.4789408  33.9939408  40.6530000
 147.3369408  34.2939408  39.7560000 147.7139408  33.0699408  40.5640000
 143.8419408  37.9109408  41.1330000 143.2649408  38.4849408  40.6300000
 144.5029408  37.6239408  40.5030000 144.1399408  31.3499408  40.9420000
 143.2239408  31.4689408  41.1920000 144.1099408  30.7419408  40.2040000
 142.8249408  51.8459408  59.9020000 143.1099408  51.1609408  60.5080000
 143.3979408  51.7459408  59.1420000 120.0609408  36.7279408  47.5830000
 120.7789408  37.3319408  47.7720000 119.7179408  37.0209408  46.7390000
 139.3879408  42.0239408  31.7080000 138.4449408  42.1189408  31.5730000
 139.5609408  41.0969408  31.5410000 138.6229408  34.8899408  42.5080000
 139.1929408  34.4829408  41.8550000 138.9969408  35.7609408  42.6440000
 148.2209408  53.3229408  44.8680000 147.5639408  53.4529408  44.1850000
 149.0359408  53.1649408  44.3900000 147.7609408  32.7849408  33.9490000
 148.2159408  32.0179408  33.6010000 147.0409408  32.9349408  33.3370000
 135.8699408  37.0169408  30.6600000 135.2029408  36.8519408  31.3270000
 136.4569408  37.6569408  31.0610000 139.5339408  47.2399408  56.6460000
 140.2919408  46.8729408  56.1910000 139.5379408  46.8119408  57.5020000
 145.9399408  35.4359408  44.7680000 146.1589408  35.8389408  43.9280000
 145.7629408  34.5199408  44.5560000 145.4509408  36.9699408  35.4990000
 144.8859408  36.2069408  35.3780000 145.7639408  37.1789408  34.6180000
 120.4629408  52.8909408  43.2580000 120.2129408  51.9829408  43.0880000
 121.3599408  52.8359408  43.5870000 134.7979408  41.2589408  50.4950000
 134.1209408  41.7319408  50.0110000 135.3779408  41.9449408  50.8280000
 138.4659408  53.8039408  39.1880000 138.8379408  54.6159408  38.8460000
 138.9149408  53.1109408  38.7040000 136.7079408  37.0059408  33.8860000
 137.1969408  37.5149408  33.2390000 136.7849408  36.0999408  33.5860000
 125.6159408  33.9159408  47.9620000 126.1299408  33.4149408  48.5940000
 125.1099408  33.2559408  47.4870000 145.2969408  35.6169408  49.7390000
 146.1719408  35.2819408  49.5430000 144.9219408  35.8239408  48.8830000
 130.5079408  37.1349408  50.9140000 131.3479408  36.7929408  50.6060000
 130.6289408  37.2549408  51.8560000 125.4309408  38.9249408  43.3460000
 124.5449408  38.8439408  43.6980000 125.4069408  39.7229408  42.8170000
 149.5329408  30.6999408  33.3760000 150.1959408  30.7629408  32.6890000
 149.1429408  29.8339408  33.2540000 139.1209408  41.3209408  43.8360000
 138.7309408  41.3989408  42.9650000 138.7629408  42.0599408  44.3270000
 143.4509408  46.6139408  47.9200000 143.0099408  47.2459408  47.3520000
 142.8429408  46.4799408  48.6470000 121.2429408  55.3819408  41.0890000
 121.8839408  54.7989408  40.6820000 120.4409408  54.8619408  41.1370000
 120.5589408  33.4369408  32.1060000 120.9039408  33.9419408  31.3700000
 119.6199408  33.3699408  31.9320000 145.4529408  53.0009408  36.3470000
 146.1639408  52.5919408  36.8410000 145.8259408  53.1649408  35.4810000
 139.8289408  42.1619408  34.8400000 140.2879408  42.3219408  35.6640000
 139.5549408  43.0299408  34.5450000 138.0169408  37.0069408  57.2190000
 137.3259408  36.5609408  57.7080000 138.0999408  36.5049408  56.4080000
 145.5609408  41.1319408  45.4750000 145.1189408  40.5969408  46.1340000
 144.8589408  41.6419408  45.0700000 121.6959408  44.5629408  35.6540000
 121.0739408  44.5129408  34.9270000 121.7619408  43.6639408  35.9750000
 146.7429408  33.6139408  47.8620000 146.4659408  34.0829408  47.0750000
 146.0469408  32.9769408  48.0200000 141.6259408  49.4869408  31.2030000
 142.4039408  49.0829408  31.5860000 141.3859408  50.1789408  31.8190000
 139.8959408  37.7829408  59.2340000 139.4559408  37.5179408  58.4260000
 139.2739408  37.5689408  59.9280000 149.2179408  53.7659408  35.8380000
 149.3659408  54.3189408  35.0710000 149.4309408  52.8809408  35.5410000
 141.2669408  30.7559408  38.5830000 141.3999408  31.0999408  39.4660000
 140.5919408  30.0849408  38.6870000 144.1839408  34.4299408  59.2750000
 143.9199408  35.0219408  58.5710000 143.4349408  34.4179408  59.8720000
 147.0209408  30.6149408  53.3560000 146.1119408  30.3729408  53.1770000
 147.4589408  29.7839408  53.5400000 147.0549408  50.3509408  43.5330000
 146.2059408  50.0659408  43.1960000 147.4329408  49.5649408  43.9270000
 143.3629408  35.0449408  41.8150000 143.7649408  35.8809408  41.5770000
 144.1039408  34.4649408  41.9930000 144.9759408  31.0289408  50.1130000
 144.6729408  31.3969408  49.2830000 144.4759408  31.4979408  50.7810000
 142.5319408  53.9129408  46.2690000 143.3199408  53.8259408  46.8050000
 142.8589408  54.0669408  45.3830000 146.3219408  37.4929408  53.9420000
 146.3019408  36.7529408  54.5480000 147.1049408  37.9849408  54.1900000
 120.1739408  41.8329408  41.6060000 120.4409408  41.6049408  42.4960000
 120.8999408  42.3529408  41.2630000 145.7369408  49.1459408  38.1800000
 144.8499408  49.1279408  38.5390000 146.1869408  48.4239408  38.6170000
 136.6539408  39.5689408  37.1000000 136.2859408  39.1019408  36.3490000
 137.5579408  39.2609408  37.1550000 138.3429408  55.7469408  36.0430000
 138.8659408  54.9999408  35.7510000 137.5969408  55.7659408  35.4440000
 124.7929408  55.8129408  35.2480000 124.3529408  56.6369408  35.4600000
 124.0799408  55.1949408  35.0880000 143.2419408  53.1659408  40.4920000
 142.9709408  53.7249408  39.7630000 142.5509408  52.5069408  40.5570000
 145.7379408  56.5139408  46.0000000 145.5399408  55.6189408  45.7260000
 144.8859408  56.8929408  46.2160000 120.0309408  36.3349408  37.2890000
 119.4529408  35.8939408  36.6650000 120.7089408  36.7369408  36.7450000
 125.4109408  31.6389408  44.1010000 126.3529408  31.5459408  43.9540000
 125.1199408  32.2449408  43.4200000 140.9789408  41.3509408  58.1040000
 141.4849408  40.7389408  58.6380000 141.4719408  41.4199408  57.2860000
 132.0409408  33.7889408  30.3090000 131.4489408  34.5119408  30.1020000
 132.7159408  33.8299408  29.6310000 144.4599408  32.0869408  47.5660000
 144.6979408  32.1839408  46.6440000 143.9199408  31.2969408  47.5930000
 128.5499408  34.3989408  49.4280000 129.1569408  34.0959408  50.1040000
 127.8149408  33.7869408  49.4750000 147.6739408  37.2299408  58.4930000
 148.1929408  38.0039408  58.2730000 147.5139408  36.7999408  57.6530000
 141.2339408  31.7299408  41.0500000 141.0569408  31.7479408  41.9900000
 141.0979408  32.6329408  40.7630000 142.1169408  36.2239408  46.4610000
 141.5759408  36.8179408  46.9810000 141.6809408  36.1839408  45.6100000
 137.0459408  39.7769408  60.0950000 136.9329408  40.7139408  60.2500000
 137.3599408  39.7189408  59.1920000 147.9949408  31.5439408  39.2960000
 147.6689408  30.7739408  39.7610000 147.5859408  31.4939408  38.4320000
 124.1849408  49.2609408  45.5620000 123.2749408  49.4589408  45.3410000
 124.2369408  49.3929408  46.5080000 141.5719408  46.0879408  49.4610000
 141.2589408  46.5549408  50.2350000 142.0279408  45.3219408  49.8100000
 144.5889408  42.8039408  48.0590000 145.3309408  42.2919408  47.7360000
 144.9889408  43.5189408  48.5550000 122.6959408  34.0899408  51.8710000
 122.3059408  33.5869408  51.1560000 122.9999408  34.8979408  51.4560000
 149.8669408  52.4849408  53.7190000 150.5199408  52.0109408  53.2050000
 149.1229408  52.5889408  53.1250000 142.9719408  59.7709408  36.6800000
 142.3179408  60.1079408  37.2920000 143.6439408  59.3789408  37.2390000
 132.1399408  37.4559408  42.2220000 133.0799408  37.4309408  42.0430000
 131.9669408  36.6499408  42.7080000 142.2569408  42.3619408  41.4830000
 141.7519408  43.1539408  41.2990000 142.2079408  41.8529408  40.6740000
 147.9939408  38.9349408  48.7130000 148.8849408  38.7869408  49.0320000
 147.4419408  38.4079408  49.2910000 145.9349408  51.0989408  58.9360000
 145.4299408  51.0179408  58.1280000 146.4369408  51.9069408  58.8260000
 122.6369408  38.9269408  38.6340000 123.0599408  39.1289408  39.4690000
 121.7709408  39.3279408  38.7010000 121.9669408  38.2519408  48.4270000
 122.8179408  38.6559408  48.5950000 121.4089408  38.5619408  49.1400000
 147.5039408  35.9579408  42.6760000 147.6349408  35.1329408  42.2080000
 147.4329408  36.6169408  41.9850000 126.0659408  33.5049408  33.3350000
 125.7129408  34.3689408  33.5490000 125.3759408  33.0859408  32.8200000
 140.1629408  33.2489408  37.1740000 140.7889408  32.6829408  37.6270000
 139.4289408  33.3299408  37.7820000 136.8479408  59.6619408  40.6200000
 136.3209408  59.0759408  41.1630000 136.2789408  59.8849408  39.8840000
 125.8869408  40.2809408  35.3640000 125.6359408  40.8369408  36.1020000
 125.8729408  40.8659408  34.6070000 142.0509408  57.8479408  51.3780000
 142.2919408  57.3129408  50.6220000 142.4079408  58.7149408  51.1820000
 146.0049408  58.4509408  50.5770000 145.3879408  57.8689408  50.1320000
 145.6789408  59.3319408  50.3920000 135.9519408  45.9449408  30.6750000
 135.0699408  45.6069408  30.8280000 136.3909408  45.2529408  30.1800000
 142.1649408  37.7679408  38.6350000 143.0789408  37.4839408  38.6030000
 142.1279408  38.5239408  38.0490000 144.3869408  40.8979408  37.2380000
 144.6949408  41.3449408  38.0260000 145.0989408  41.0059408  36.6070000
 140.4669408  57.5979408  46.5020000 140.0149408  58.4079408  46.7400000
 139.9129408  56.9009408  46.8520000 137.1799408  54.4859408  41.5940000
 137.1339408  54.0919408  40.7230000 137.8769408  55.1389408  41.5260000
 147.1109408  37.9229408  40.7590000 146.6699408  38.6599408  41.1820000
 147.2859408  38.2279408  39.8680000 144.4309408  38.2329408  30.1660000
 144.9999408  38.8329408  29.6840000 144.9499408  37.9689408  30.9260000
 147.6649408  47.8339408  50.4340000 147.0099408  47.9209408  51.1270000
 147.7929408  48.7259408  50.1110000 140.4459408  35.7249408  35.9510000
 140.6899408  34.9389408  36.4390000 141.2809408  36.0999408  35.6680000
 124.0989408  47.2339408  50.9040000 123.5579408  47.6299408  50.2210000
 124.7849408  47.8809408  51.0720000 143.0409408  55.6989408  37.7480000
 142.2169408  56.1149408  37.4950000 143.0589408  54.8799408  37.2530000
 135.0709408  33.1099408  41.9730000 135.9309408  32.7019408  41.8700000
 134.5769408  32.4959408  42.5170000 121.2549408  36.8109408  44.1630000
 120.3669408  36.7379408  44.5100000 121.5479408  37.6809408  44.4330000
 121.2039408  48.3319408  38.1590000 121.7869408  48.4599408  38.9080000
 120.4139408  47.9419408  38.5330000 130.8509408  48.0429408  50.5640000
 131.5169408  47.8769408  49.8970000 130.6929408  47.1879408  50.9640000
 145.3289408  43.5029408  41.5810000 145.0329408  44.2309408  42.1270000
 146.1189408  43.1829408  42.0170000 147.1119408  57.8559408  44.3000000
 146.6299408  57.3489408  44.9530000 148.0099408  57.8809408  44.6300000
 144.7879408  32.1149408  35.8990000 144.1839408  31.3719408  35.9120000
 145.6579408  31.7159408  35.9040000 139.4179408  45.1679408  46.0930000
 140.2329408  44.6729408  46.0060000 139.6999408  46.0539408  46.3210000
 147.7659408  43.5989408  33.8470000 147.7389408  43.8419408  34.7720000
 147.9009408  44.4269408  33.3850000 125.1689408  44.5189408  46.3780000
 125.8409408  44.4369408  47.0540000 124.4199408  44.9079408  46.8290000
 142.8469408  44.3839408  59.2860000 143.0729408  45.2939408  59.4810000
 142.3399408  44.4319408  58.4760000 144.5049408  33.7859408  38.3370000
 144.6659408  33.1259408  37.6630000 145.3689408  33.9629408  38.7110000
 147.8919408  45.9599408  31.8140000 147.0629408  45.4949408  31.6950000
 148.2699408  46.0039408  30.9360000 141.4209408  35.9589408  43.7260000
 140.7449408  36.4539408  43.2630000 142.0389408  35.6999408  43.0420000
 124.4059408  40.8699408  31.0480000 123.6999408  41.4429408  31.3470000
 125.1239408  41.0339408  31.6600000 137.9489408  47.1749408  41.2960000
 137.9059408  46.2389408  41.0990000 138.8179408  47.2979408  41.6800000
 145.4809408  41.9639408  39.4060000 145.1199408  42.5119408  40.1030000
 146.2799408  41.5939408  39.7810000 147.2379408  34.9699408  38.0610000
 147.3909408  35.8909408  38.2740000 147.5609408  34.8749408  37.1650000
 144.1389408  38.9709408  54.3760000 143.4629408  38.4299408  53.9690000
 144.9209408  38.4189408  54.3760000 136.7859408  48.4209408  31.6810000
 136.7219408  47.5299408  31.3370000 137.4129408  48.8559408  31.1040000
 142.8489408  43.5719408  49.9600000 143.5609408  43.2709408  49.3950000
 142.1069408  43.0129408  49.7290000 143.2589408  30.4689408  44.2250000
 143.7039408  29.7619408  43.7580000 143.9489408  31.1049408  44.4120000
 128.5139408  48.9249408  34.6940000 128.4449408  47.9949408  34.9100000
 127.8739408  49.0569408  33.9950000 120.9149408  42.1979408  33.5130000
 120.7669408  42.8599408  32.8380000 120.2449408  41.5339408  33.3490000
 136.2619408  35.6629408  41.8050000 137.1559408  35.3529408  41.9450000
 135.7269408  34.8699408  41.8260000 145.2609408  32.5219408  45.1500000
 146.1599408  32.1979408  45.2140000 145.1129408  32.6349408  44.2110000
 146.0369408  39.7699408  42.4210000 146.3529408  39.1019408  43.0300000
 145.0999408  39.8379408  42.6050000 143.0209408  38.4339408  33.5050000
 143.2149408  39.3699408  33.4500000 143.4379408  38.1499408  34.3190000
 138.3969408  31.7669408  34.5070000 138.1719408  31.0319408  35.0770000
 139.3529408  31.8069408  34.5340000 147.9889408  39.2129408  55.4190000
 148.5799408  39.2639408  56.1700000 147.4759408  40.0199408  55.4620000
 149.4079408  50.4649408  42.4830000 148.5159408  50.4729408  42.8300000
 149.2959408  50.4509408  41.5330000 139.9099408  38.3669408  40.0660000
 139.9099408  39.2509408  39.6990000 140.6139408  37.9149408  39.6030000
 142.6919408  41.3699408  56.1520000 142.7639408  40.5559408  55.6530000
 143.5839408  41.5479408  56.4510000 142.3429408  47.8229408  43.7280000
 142.4789408  48.5569408  44.3260000 141.4959408  47.9999408  43.3180000
 138.5539408  48.9259408  54.6820000 138.7939408  48.2999408  55.3660000
 139.3529408  49.4279408  54.5250000 120.9789408  41.7839408  36.4660000
 120.8059408  41.5689408  35.5490000 120.8379408  40.9619408  36.9360000
 138.5449408  36.2349408  38.9460000 138.6869408  36.3049408  38.0020000
 138.8589408  37.0669408  39.2990000 137.5829408  32.1169408  41.6990000
 137.5359408  31.9249408  42.6360000 137.4419408  31.2719408  41.2740000
 143.0879408  36.0449408  32.2860000 143.1179408  36.9629408  32.5550000
 142.5769408  36.0479408  31.4770000 139.4299408  59.0179408  30.8690000
 140.3869408  59.0099408  30.8630000 139.1899408  58.4979408  31.6360000
 143.0929408  34.5809408  56.6170000 143.7929408  34.1529408  56.1250000
 142.4559408  34.8409408  55.9520000 149.4029408  51.3029408  46.8030000
 149.1189408  52.1149408  46.3830000 150.2919408  51.4879408  47.1050000
 127.9229408  30.9289408  37.0610000 128.3859408  31.4039408  37.7510000
 127.6119408  31.6119408  36.4670000 146.0629408  36.2019408  32.8730000
 146.7759408  36.4759408  32.2960000 145.4759408  35.7009408  32.3070000
 145.4119408  50.8149408  31.5320000 145.4999408  50.9999408  30.5970000
 146.2239408  50.3649408  31.7650000 148.3659408  35.4669408  49.3010000
 148.8039408  35.9929408  48.6320000 148.0599408  34.6899408  48.8330000
 133.7059408  30.8079408  58.7940000 132.8089408  30.6749408  59.0990000
 134.2449408  30.6919408  59.5770000 140.9419408  34.3839408  47.7550000
 140.5819408  33.9059408  47.0080000 141.5239408  35.0359408  47.3640000
 139.5519408  43.4549408  59.3200000 139.6209408  42.9329408  60.1200000
 139.9389408  42.9039408  58.6400000 149.4049408  39.7769408  31.2160000
 149.7829408  39.6169408  30.3520000 148.8879408  38.9919408  31.4010000
 143.8139408  46.7889408  59.7140000 143.7769408  47.3819408  60.4640000
 144.6549408  46.9789408  59.2980000 122.6029408  46.3849408  57.6050000
 122.3689408  46.0419408  56.7430000 123.5349408  46.1849408  57.6980000
 141.4199408  43.2069408  54.2540000 141.6209408  42.3409408  54.6100000
 141.2789408  43.0559408  53.3200000 144.3839408  46.4509408  56.5200000
 144.4989408  47.3369408  56.1780000 144.0379408  46.5779408  57.4040000
 149.1759408  40.3779408  52.4850000 148.2839408  40.5879408  52.2080000
 149.0939408  40.1619408  53.4140000 147.5159408  41.6489408  48.8270000
 147.5849408  40.6959408  48.7670000 147.6049408  41.8379408  49.7610000
 148.1189408  43.0759408  53.9840000 148.7619408  42.6759408  54.5710000
 147.4529408  43.4369408  54.5690000 120.9759408  43.9229408  56.7960000
 121.2779408  44.0099408  57.7000000 121.7439408  43.6149408  56.3150000
 144.1129408  31.7349408  58.1150000 144.7809408  31.4299408  57.5010000
 144.4059408  32.6089408  58.3730000 141.7639408  43.3609408  32.3840000
 141.7739408  43.7069408  31.4920000 140.9559408  42.8499408  32.4340000
 120.6829408  34.4809408  56.5800000 120.8219408  34.3349408  55.6450000
 120.8769408  35.4089408  56.7100000 148.0309408  55.7699408  30.2010000
 147.6519408  56.3839408  29.5710000 148.7909408  56.2309408  30.5560000
 122.9169408  40.2559408  52.9200000 122.3259408  40.8239408  52.4250000
 123.4999408  40.8599408  53.3800000 141.1939408  34.9999408  54.4080000
 140.3499408  35.2639408  54.7730000 141.2559408  34.0639408  54.5980000
 146.5439408  35.5789408  55.9390000 145.8209408  34.9659408  55.8060000
 147.3229408  35.0939408  55.6660000 148.7599408  58.1839408  33.0480000
 148.8759408  57.2849408  33.3560000 149.4779408  58.3219408  32.4310000
 122.6489408  37.0719408  53.3300000 122.9159408  37.8839408  52.8980000
 122.1039408  36.6239408  52.6820000 142.4329408  54.4709408  30.8190000
 141.6569408  54.3989408  31.3750000 142.5059408  53.6149408  30.3970000
 147.0089408  37.7539408  50.9100000 147.1639408  37.5669408  51.8360000
 146.1749408  37.3249408  50.7160000 123.2349408  48.6979408  54.7910000
 122.6099408  47.9739408  54.8150000 124.0829408  48.2909408  54.9680000
 125.1829408  45.2449408  58.7310000 125.2499408  44.6459408  57.9880000
 126.0909408  45.4169408  58.9820000 139.5569408  49.2589408  34.7920000
 139.8279408  48.5009408  34.2750000 139.5719408  49.9889408  34.1730000
 146.9399408  40.5709408  35.5480000 147.2969408  41.4359408  35.7460000
 147.5429408  40.2049408  34.9000000 142.1869408  37.3489408  53.2340000
 142.6329408  37.2299408  52.3960000 141.9849408  36.4599408  53.5270000
 143.0549408  56.8219408  45.9560000 142.1179408  56.8199408  46.1500000
 143.1779408  56.0819408  45.3610000 146.0829408  44.9759408  52.9120000
 146.8299408  44.5689408  52.4730000 146.1679408  44.7089408  53.8270000
 121.7139408  34.7479408  34.2270000 121.3929408  34.3309408  33.4270000
 121.0859408  34.4889408  34.9010000 146.7119408  58.8939408  31.2240000
 147.5319408  58.5429408  31.5710000 146.3319408  59.3829408  31.9540000
 144.2559408  53.5429408  48.3680000 144.2759408  52.7569408  48.9150000
 145.1489408  53.6239408  48.0320000 147.4089408  58.0439408  58.3580000
 146.8659408  58.5749408  58.9420000 148.0689408  58.6529408  58.0260000
 126.1619408  51.5309408  55.3790000 126.6229408  52.3089408  55.0660000
 126.8009408  50.8229408  55.2930000 144.1759408  48.5089408  31.7660000
 144.5339408  49.3739408  31.5650000 144.8279408  48.1069408  32.3410000
 145.2449408  45.1359408  49.2390000 144.6809408  45.3399408  49.9860000
 145.0279408  45.8009408  48.5860000 147.8889408  32.9389408  30.7890000
 147.1389408  32.3659408  30.9500000 147.5709408  33.8159408  31.0000000
 137.5889408  35.9449408  51.8650000 137.9269408  35.0509408  51.9150000
 138.2399408  36.4199408  51.3480000 138.6329408  33.7929408  57.6990000
 139.4459408  33.2949408  57.6140000 138.5859408  34.0199408  58.6280000
 149.2179408  41.7099408  56.2810000 149.3859408  41.1539408  57.0420000
 149.5759408  42.5639408  56.5240000 140.0679408  36.6019408  50.6770000
 140.4109408  35.7399408  50.4420000 140.8469408  37.1369408  50.8290000
 149.4139408  33.1659408  46.0720000 149.2369408  32.3849408  46.5970000
 148.9069408  33.8589408  46.4960000 146.1419408  42.3979408  57.6270000
 145.4329408  42.2329408  58.2480000 146.9029408  42.5879408  58.1750000
 137.8799408  37.6249408  54.1220000 137.7579408  36.6759408  54.0920000
 137.0159408  37.9709408  54.3480000 141.5639408  45.6829408  55.4200000
 142.2419408  45.5029408  56.0710000 141.3869408  44.8329408  55.0160000
 149.8499408  32.5939408  58.7080000 149.3119408  32.9239408  59.4270000
 149.7199408  33.2259408  58.0010000 144.0009408  34.7069408  35.0710000
 143.8849408  34.5229408  34.1390000 144.2479408  33.8649408  35.4530000
 148.6979408  34.9809408  53.9730000 149.2289408  35.6649408  54.3820000
 149.2709408  34.2149408  53.9480000 122.5169408  33.7909408  58.9940000
 122.3399408  34.7299408  59.0370000 122.0049408  33.4829408  58.2460000
 129.8899408  41.8059408  47.1790000 130.2009408  41.2239408  47.8720000
 130.1229408  41.3559408  46.3660000 122.2539408  45.9619408  54.7120000
 121.4929408  45.4689408  54.4070000 123.0069408  45.4519408  54.4130000
 140.1359408  46.2199408  58.9780000 139.9219408  45.3049408  58.7990000
 140.5769408  46.2019408  59.8280000 140.0029408  39.2039408  53.4090000
 140.8009408  38.6759408  53.4560000 139.3039408  38.6049408  53.6730000
 143.6059408  42.7209408  44.1930000 143.3069408  42.6279408  43.2890000
 143.8659408  43.6389408  44.2670000 141.9269408  48.4589408  57.4240000
 141.6859408  49.2179408  57.9550000 141.2059408  47.8409408  57.5460000
 140.6599408  50.6539408  58.5530000 140.8069408  50.9329408  59.4560000
 140.5649408  51.4699408  58.0610000 143.0969408  37.0939408  50.7320000
 143.5719408  37.7899408  50.2780000 143.5829408  36.2959408  50.5220000
 120.1209408  37.1739408  55.0360000 121.0009408  37.3079408  54.6820000
 119.6779408  38.0119408  54.9010000 141.2829408  34.2129408  40.2370000
 142.1709408  34.4309408  40.5200000 140.9569408  35.0169408  39.8310000
 125.2779408  41.5559408  37.5480000 124.8449408  40.9229408  38.1220000
 125.5749408  42.2489408  38.1370000 126.0519408  36.0389408  42.9900000
 126.7619408  35.9259408  42.3580000 125.9799408  36.9859408  43.1040000
 145.8779408  44.2189408  55.3820000 145.9199408  43.5969408  56.1090000
 145.3539408  44.9449408  55.7190000 146.9689408  56.1229408  52.1750000
 147.8909408  56.2139408  52.4190000 146.8059408  56.8519408  51.5770000
 120.5089408  39.7659408  43.8980000 119.8269408  39.7809408  44.5700000
 120.2249408  39.0889408  43.2830000 142.0069408  43.9469408  46.1180000
 142.6479408  43.3789408  45.6900000 142.4899408  44.3509408  46.8390000
 141.3509408  53.5839408  57.1550000 142.0519408  54.1379408  56.8110000
 140.8199408  54.1729408  57.6900000 123.1369408  45.9089408  47.4420000
 123.2879408  46.7359408  47.8990000 122.3239408  46.0479408  46.9560000
 144.1139408  33.7159408  51.1230000 144.5879408  34.4759408  50.7840000
 144.5419408  33.5189408  51.9560000 119.8739408  39.2279408  57.4500000
 120.4399408  39.4969408  56.7260000 120.4529408  38.7489408  58.0430000
 133.7419408  36.4529408  45.6390000 134.2449408  36.8479408  44.9270000
 133.4279408  37.1979408  46.1520000 148.1879408  42.5169408  59.3490000
 149.0379408  42.9559408  59.3450000 148.2049408  41.9679408  60.1330000
 123.9139408  44.3159408  50.0960000 123.3239408  45.0459408  50.2810000
 123.8699408  44.2069408  49.1460000 139.3529408  39.0949408  49.9650000
 138.9699408  39.8979408  50.3180000 139.1119408  38.4159408  50.5960000
 137.2159408  32.2419408  44.2630000 137.4569408  31.6839408  45.0030000
 136.9959408  33.0849408  44.6600000 125.4609408  44.3169408  56.1370000
 124.8509408  43.6819408  55.7600000 126.2679408  43.8219408  56.2740000
 126.1759408  33.6459408  53.8610000 127.0319408  33.4339408  54.2340000
 125.6269408  33.8449408  54.6190000 120.6509408  44.1239408  53.5250000
 119.7119408  43.9479408  53.5810000 120.9809408  43.4709408  52.9080000
 122.0539408  42.5049408  51.6720000 122.7779408  43.0489408  51.3630000
 121.3189408  42.7389408  51.1060000 147.4739408  38.2959408  37.3770000
 147.0789408  39.0559408  36.9490000 147.4529408  37.6089408  36.7110000
 124.6389408  38.2059408  30.3610000 124.5499408  39.1419408  30.5400000
 125.5799408  38.0399408  30.4160000 123.5789408  35.2939408  44.7230000
 124.2869408  35.7469408  44.2640000 122.8469408  35.9109408  44.7040000
 134.3679408  38.5949408  50.4910000 134.4269408  39.5469408  50.5680000
 134.3979408  38.4279408  49.5490000 122.4339408  59.4479408  51.3220000
 121.7669408  58.7629408  51.3040000 122.1439408  60.0829408  50.6670000
 139.6399408  47.0629408  51.6660000 140.2749408  47.2579408  52.3550000
 139.4069408  47.9179408  51.3040000 147.1349408  42.3819408  51.4320000
 146.3539408  41.8949408  51.6950000 147.7049408  42.3559408  52.2000000
 121.7099408  34.5589408  47.3620000 121.2679408  34.1129408  46.6390000
 121.0809408  35.2169408  47.6580000 142.3099408  40.3559408  51.7640000
 141.7209408  41.1059408  51.6740000 141.7629408  39.6659408  52.1410000
 148.6129408  50.5529408  50.3810000 149.2029408  50.8629408  51.0670000
 148.5069408  51.3039408  49.7970000 138.5159408  55.7009408  30.7170000
 138.6129408  56.6029408  31.0230000 139.1969408  55.5999408  30.0510000
 144.3199408  45.3179408  43.4330000 143.7379408  46.0469408  43.2200000
 144.8819408  45.6559408  44.1310000 142.5469408  45.5769408  34.2880000
 141.8889408  46.0879408  33.8160000 142.4899408  44.7009408  33.9070000
 139.5539408  30.0589408  47.2370000 139.8519408  30.3489408  46.3750000
 138.6799408  30.4369408  47.3290000 144.5779408  56.1839408  49.7680000
 145.3119408  55.7339408  49.3490000 143.8019408  55.8429408  49.3220000
 141.9709408  59.7309408  34.2900000 141.4919408  60.5529408  34.3860000
 142.2929408  59.5359408  35.1700000 139.7779408  53.9979408  43.5600000
 140.2779408  54.1409408  42.7560000 140.3799408  53.5269408  44.1360000
 136.2369408  32.5929408  37.0360000 136.4979408  31.7169408  36.7530000
 137.0569408  33.0199408  37.2820000 137.8549408  33.6489408  38.8230000
 138.0219408  34.5789408  38.9790000 137.6949408  33.2839408  39.6930000
 140.3289408  54.1079408  32.8240000 139.6049408  54.5969408  32.4350000
 140.2499408  54.2699408  33.7640000 141.6989408  30.0119408  49.4060000
 142.3109408  29.7979408  48.7010000 140.9559408  30.4209408  48.9620000
 147.1489408  51.4149408  38.1260000 147.0169408  51.9989408  38.8730000
 146.3659408  50.8649408  38.1090000 141.1139408  32.1109408  34.7390000
 141.1109408  32.6599408  35.5240000 141.5609408  32.6399408  34.0780000
 142.0079408  40.1399408  46.2200000 141.9829408  40.3189408  45.2790000
 142.8879408  39.7949408  46.3750000 136.6089408  48.0909408  43.3550000
 136.7289408  47.5009408  42.6110000 137.4469408  48.5439408  43.4390000
 147.8639408  47.4319408  39.3610000 147.7469408  47.2979408  40.3010000
 148.3079408  48.2779408  39.2930000 121.0329408  55.6039408  43.9710000
 120.2089408  55.2399408  44.2930000 121.2309408  55.0919408  43.1870000
 121.9339408  59.6879408  48.6420000 122.2469408  58.7839408  48.6550000
 121.5109408  59.7829408  47.7880000 121.1559408  48.4609408  50.0400000
 120.2709408  48.7809408  49.8660000 121.0349408  47.5459408  50.2950000
 122.0799408  58.3339408  33.5080000 121.6479408  58.7749408  32.7770000
 122.4669408  59.0439408  34.0210000 137.4589408  49.6149408  36.9330000
 136.5709408  49.2699408  37.0270000 137.7209408  49.3639408  36.0470000
 145.5019408  55.3549408  58.7860000 146.3499408  54.9159408  58.7100000
 145.0439408  55.1329408  57.9750000 146.6749408  47.5639408  43.5590000
 146.2789408  47.7839408  44.4030000 146.8119408  46.6169408  43.5990000
 139.9319408  53.5469408  35.4520000 139.4589408  52.7149408  35.4690000
 140.8459408  53.3059408  35.6030000 143.0439408  51.6259408  43.4910000
 142.5689408  51.6099408  42.6600000 143.9519408  51.4399408  43.2520000
 141.5259408  57.0239408  33.9340000 141.8329408  56.7029408  33.0860000
 141.8009408  57.9409408  33.9570000 142.5659408  53.1829408  36.2490000
 142.5139408  52.3989408  36.7960000 143.4839408  53.2299408  35.9820000
 122.7359408  53.2419408  51.7040000 122.8889408  53.6109408  50.8350000
 122.5469408  53.9999408  52.2570000 145.2289408  33.2469408  42.4100000
 144.8559408  32.6399408  41.7710000 146.0849408  33.4789408  42.0500000
 123.0529408  56.7679408  45.5720000 122.4119408  56.2939408  45.0430000
 123.1159408  57.6289408  45.1590000 144.1119408  51.8259408  33.7350000
 144.7569408  52.4489408  34.0690000 144.4369408  51.5849408  32.8680000
 145.3229408  46.5199408  33.7300000 145.4299408  45.8639408  33.0410000
 144.4889408  46.2979408  34.1450000 121.2079408  54.3789408  58.9760000
 120.7519408  53.5889408  59.2650000 122.1189408  54.1049408  58.8680000
 145.6729408  50.8899408  53.2500000 145.9379408  51.6929408  52.8020000
 145.0279408  50.4909408  52.6670000 148.0719408  45.0429408  44.1250000
 148.3279408  44.1539408  43.8810000 148.7059408  45.6059408  43.6790000
 141.4969408  47.6769408  38.9910000 140.6869408  47.9649408  39.4120000
 141.2069408  47.1699408  38.2330000 141.3089408  51.2979408  40.9070000
 140.3719408  51.3809408  41.0840000 141.3559408  50.9219408  40.0280000
 139.9409408  55.9629408  58.3800000 139.0549408  56.3189408  58.3170000
 140.3819408  56.2749408  57.5900000 142.7679408  49.3119408  47.3790000
 142.3009408  50.0629408  47.0110000 143.4259408  49.6989408  47.9570000
 139.7129408  51.5399408  37.5910000 139.1179408  50.8719408  37.2500000
 140.5109408  51.0599408  37.8100000 143.7039408  47.7479408  40.5130000
 144.1529408  46.9339408  40.2860000 142.9529408  47.7799408  39.9200000
 147.4709408  55.8359408  36.5070000 147.7579408  54.9329408  36.6370000
 147.3959408  55.9299408  35.5570000 147.1539408  55.2229408  48.8610000
 147.2309408  54.5909408  48.1470000 147.9429408  55.7599408  48.7930000
 148.9979408  45.2499408  47.3840000 148.6679408  45.0439408  48.2580000
 148.5579408  44.6249408  46.8080000 137.0249408  52.7099408  47.6690000
 136.8809408  52.0149408  47.0260000 136.7759408  53.5139408  47.2140000
 145.5159408  32.1409408  32.2740000 144.6969408  32.6339408  32.2290000
 145.2789408  31.3189408  32.7030000 147.8379408  46.4779408  34.9610000
 147.1649408  46.4449408  34.2810000 148.2269408  47.3489408  34.8720000
 138.1619408  41.4479408  48.1310000 138.1129408  41.6889408  49.0560000
 139.0279408  41.7449408  47.8520000 131.7949408  34.1809408  45.4660000
 131.0579408  34.3869408  46.0420000 132.4969408  34.7619408  45.7580000
 144.6279408  59.7129408  33.2650000 143.6809408  59.5999408  33.3410000
 144.9819408  59.3039408  34.0550000 144.1549408  58.4689408  38.6710000
 144.9869408  57.9959408  38.6860000 143.5239408  57.8559408  39.0480000
 147.6299408  58.3429408  37.5860000 147.5669408  57.3909408  37.5050000
 147.5549408  58.5079408  38.5260000 146.7179408  53.2369408  47.1170000
 147.0469408  53.5299408  46.2670000 146.4409408  52.3329408  46.9690000
 148.6429408  53.4169408  32.1320000 149.5469408  53.7219408  32.2000000
 148.2299408  54.0239408  31.5180000 138.1019408  59.3339408  43.8490000
 138.8249408  59.9569408  43.9170000 138.5209408  58.5029408  43.6270000
 120.8829408  45.8929408  50.9960000 121.0199408  45.6469408  51.9110000
 120.0429408  45.4959408  50.7640000 149.7119408  57.0349408  48.1520000
 149.5509408  57.4989408  47.3300000 149.2639408  57.5589408  48.8150000
 127.1339408  53.6299408  47.5170000 126.9599408  54.4419408  47.0430000
 127.4829408  53.0339408  46.8540000 124.8129408  50.6049408  50.3340000
 124.8989408  51.5329408  50.5520000 124.8869408  50.1529408  51.1740000
 145.3029408  56.0099408  41.7730000 145.0519408  55.5969408  40.9470000
 144.6769408  56.7259408  41.8830000 135.4609408  53.4619408  33.0360000
 135.9439408  53.2799408  32.2300000 135.3659408  52.6069408  33.4560000
 133.5109408  57.9189408  45.3630000 134.4469408  57.8499408  45.5500000
 133.2639408  57.0499408  45.0470000 145.1669408  55.1589408  31.8110000
 144.2559408  54.8679408  31.8270000 145.3879408  55.2049408  30.8810000
 141.1539408  57.1659408  36.5480000 141.4189408  56.9389408  35.6570000
 141.5359408  58.0299408  36.7000000 137.0539408  56.8609408  58.2050000
 136.3929408  57.1089408  58.8510000 136.5519408  56.4939408  57.4770000
 136.0469408  34.5639408  45.7710000 136.0809408  34.5099408  46.7260000
 135.4529408  35.2939408  45.5940000 122.8799408  57.4629408  42.2670000
 122.0239408  57.0379408  42.2150000 123.2679408  57.3299408  41.4030000
 148.6919408  49.2009408  33.8620000 149.5599408  48.8229408  33.7170000
 148.1619408  48.8679408  33.1380000 120.1709408  55.8719408  33.6420000
 120.6029408  55.3299408  32.9810000 120.8439408  56.4929408  33.9200000
 141.9069408  50.2649408  38.2860000 141.7919408  49.3209408  38.3890000
 142.4119408  50.3589408  37.4790000 140.8209408  55.7819408  41.5460000
 140.6039408  55.9449408  40.6280000 140.7959408  56.6459408  41.9560000
 147.3569408  31.1799408  36.2670000 147.6309408  31.6629408  35.4870000
 148.0139408  30.4909408  36.3660000 138.4929408  50.8929408  41.3400000
 138.2899408  50.2629408  40.6490000 137.8709408  51.6069408  41.2050000
 147.5929408  58.9229408  40.4380000 147.4519408  59.3709408  41.2720000
 148.5019408  58.6269408  40.4740000 129.8979408  58.3239408  47.5680000
 130.5479408  57.6229408  47.5210000 129.0609408  57.8869408  47.4100000
 120.6229408  55.0849408  49.8260000 121.5509408  54.8679408  49.9130000
 120.5909408  55.7159408  49.1080000 132.2699408  46.4249408  58.7760000
 132.9509408  47.0969408  58.8060000 132.4539408  45.9319408  57.9760000
 149.5049408  39.6089408  33.9390000 149.2369408  39.4409408  33.0360000
 150.3389408  39.1489408  34.0320000 144.9399408  58.5519408  42.8940000
 145.6679408  58.0659408  43.2810000 145.3499408  59.3119408  42.4820000
 146.2609408  50.5759408  46.5330000 145.9599408  49.7359408  46.1870000
 147.1519408  50.4039408  46.8380000 120.9209408  59.9589408  39.9480000
 121.4189408  59.3979408  39.3520000 120.0779408  60.0829408  39.5120000
 120.1289408  30.2789408  36.1440000 120.1339408  30.2069408  35.1890000
 120.6739408  29.5509408  36.4420000 140.1059408  56.3139408  38.9570000
 140.3829408  56.3689408  38.0430000 139.8789408  57.2129408  39.1940000
 143.6379408  59.1839408  57.3740000 143.8629408  58.6559408  58.1400000
 143.7149408  60.0889408  57.6760000 137.8029408  31.4979408  32.0150000
 137.8179408  31.3079408  32.9530000 137.9959408  30.6579408  31.5970000
 141.2849408  51.4409408  33.2030000 142.1909408  51.6019408  33.4660000
 140.9289408  52.3109408  33.0260000 144.8339408  48.1349408  45.5300000
 145.1179408  47.2749408  45.8380000 144.2629408  48.4619408  46.2250000
 145.9399408  53.0769408  40.1740000 145.0409408  52.8989408  40.4490000
 145.8779408  53.8789408  39.6550000 127.8459408  34.6539408  58.8310000
 128.2209408  34.7389408  59.7070000 127.3629408  33.8279408  58.8550000
 120.5509408  53.0329408  38.3860000 120.1859408  53.4379408  37.6000000
 119.8569408  53.1109408  39.0410000 141.0919408  32.8469408  57.7180000
 141.6289408  32.2659408  58.2570000 141.7059408  33.5029408  57.3870000
 139.0939408  55.2559408  47.6310000 138.8449408  55.5209408  48.5160000
 138.5189408  54.5169408  47.4310000 144.6889408  56.4959408  53.9890000
 145.4609408  56.4079408  53.4300000 144.0209408  55.9579408  53.5630000
 139.7889408  57.3129408  53.2930000 140.5389408  57.1429408  52.7230000
 139.6029408  58.2449408  53.1720000 146.0789408  58.6559408  35.3270000
 146.5179408  58.9459408  36.1270000 146.5309408  57.8469408  35.0860000
 141.9989408  57.5469408  31.0180000 142.9239408  57.6119408  30.7810000
 141.7279408  56.6889408  30.6910000 137.6129408  50.7449408  33.2240000
 137.4149408  49.8939408  32.8320000 137.7729408  51.3209408  32.4770000
 148.7029408  53.2359408  50.3090000 149.5569408  53.6369408  50.1500000
 148.0819408  53.8059408  49.8540000 139.1839408  52.3919408  49.3730000
 138.8759408  52.0519408  50.2130000 138.3959408  52.4469408  48.8330000
 148.9259408  49.3549408  59.1130000 148.4939408  49.0299408  58.3230000
 149.7449408  48.8629408  59.1590000 142.4529408  52.8319408  54.3870000
 143.2899408  53.2969408  54.4070000 141.9209408  53.3219408  53.7600000
 149.3329408  50.1069408  39.6110000 150.1389408  50.5079408  39.2850000
 148.7129408  50.1949408  38.8870000 149.7389408  31.2499408  52.7270000
 149.9719408  30.5979408  52.0660000 148.7969408  31.1349408  52.8560000
 134.6139408  54.3099408  58.8680000 133.7559408  54.7329408  58.8890000
 135.0889408  54.7639408  58.1720000 121.4839408  50.5129408  56.1210000
 121.9909408  49.8839408  55.6070000 120.8779408  50.9039408  55.4910000
 146.4009408  40.1289408  59.6700000 146.3809408  40.6799408  60.4520000
 146.2529408  40.7369408  58.9450000 149.0999408  56.4319408  55.9860000
 148.5239408  56.4859408  56.7480000 148.5919408  55.9469408  55.3350000
 147.4289408  54.6289408  54.5640000 146.6139408  54.5409408  54.0710000
 147.3679408  53.9629408  55.2490000 146.4519408  48.2429408  53.9800000
 146.5979408  49.0739408  53.5290000 145.5169408  48.0689408  53.8690000
 146.6279408  35.1689408  60.1560000 145.8039408  34.7719408  59.8740000
 146.6229408  36.0389408  59.7570000 122.8429408  55.7119408  53.1490000
 123.7689408  55.4969408  53.0340000 122.8479408  56.5679408  53.5780000
 143.8769408  51.7659408  57.1800000 144.5629408  52.2469408  56.7180000
 143.0929408  52.3049408  57.0720000 148.0669408  45.0089408  50.1910000
 148.0739408  45.9439408  49.9830000 147.1889408  44.8459408  50.5340000
 146.0639408  47.5379408  58.8710000 146.7539408  46.9079408  58.6660000
 146.4249408  48.3839408  58.6060000 149.9059408  58.0329408  51.8660000
 149.3759408  58.3819408  52.5830000 150.0419408  57.1129408  52.0930000
 147.5559408  53.3009408  58.4550000 148.1949408  53.8009408  58.9620000
 148.0589408  52.9369408  57.7270000 147.8099408  47.9179408  56.6380000
 147.3599408  48.3039408  55.8870000 147.8709408  46.9859408  56.4280000
 140.8229408  50.4389408  54.5460000 141.4419408  51.1659408  54.6110000
 140.8099408  50.2179408  53.6140000 146.1169408  30.6769408  56.5390000
 145.8869408  30.0879408  55.8210000 146.9099408  30.2969408  56.9170000
 144.0979408  42.2559408  59.3850000 143.7049408  43.1289408  59.3770000
 143.3609408  41.6629408  59.5350000 123.7959408  32.6399408  31.5360000
 123.1589408  33.0979408  30.9870000 123.2689408  32.0539408  32.0780000
 149.0779408  52.0099408  56.4940000 149.7929408  51.5059408  56.8830000
 149.4689408  52.4279408  55.7270000 146.4579408  52.1029408  55.8250000
 147.2999408  51.6859408  56.0080000 146.1359408  51.6579408  55.0400000
 144.2699408  59.2149408  54.6630000 144.2869408  58.9489408  55.5820000
 144.4699408  58.4149408  54.1780000 139.3969408  52.8279408  55.2380000
 139.5079408  52.1059408  54.6190000 140.1119408  52.7199408  55.8640000
 140.7379408  33.9019408  50.2470000 140.8629408  33.9519408  49.3000000
 141.6089408  34.0529408  50.6130000 149.0199408  58.8129408  54.3330000
 149.8619408  59.1639408  54.6250000 148.8459408  58.0819408  54.9260000
 136.8359408  31.2099408  57.0900000 137.4759408  30.5949408  57.4500000
 137.1229408  32.0669408  57.4050000 146.1579408  56.4039408  33.9090000
 145.6669408  57.2129408  34.0520000 145.8099408  56.0549408  33.0890000
 137.0399408  58.4119408  54.8180000 137.5809408  58.5059408  55.6020000
 137.1749408  57.5059408  54.5410000 143.6199408  54.9529408  52.0760000
 142.8519408  54.5989408  51.6270000 144.1499408  55.3379408  51.3780000
 141.2529408  53.5169408  50.7880000 140.5179408  53.0819408  50.3570000
 140.8559408  53.9929408  51.5170000 123.1729408  59.6979408  53.8650000
 122.8949408  59.4999408  52.9710000 123.6089408  60.5479408  53.7990000
 144.4219408  39.4159408  50.1160000 145.2529408  39.6309408  50.5400000
 143.7539408  39.7569408  50.7110000 122.7039408  51.1609408  30.5350000
 121.8629408  51.6189408  30.5440000 122.8899408  51.0209408  29.6060000
 138.5739408  56.5729408  49.9790000 139.3969408  57.0059408  50.2050000
 137.9349408  56.9379408  50.5900000 143.9579408  31.6669408  53.3620000
 143.0839408  31.9459408  53.6370000 144.0009408  30.7409408  53.6010000
 148.8059408  46.1259408  59.0390000 149.4149408  46.8549408  58.9240000
 149.3669408  45.3549408  59.1220000 143.5929408  50.4459408  36.1030000
 144.4549408  50.0469408  36.2220000 143.6239408  50.8299408  35.2270000
 141.0189408  51.9559408  47.3460000 140.6409408  52.0609408  48.2200000
 141.4569408  52.7889408  47.1720000 149.3579408  36.4659408  51.7420000
 148.9689408  36.1709408  50.9190000 149.0259408  35.8529408  52.3980000
 125.0389408  50.2599408  53.3180000 125.4329408  50.8059408  53.9980000
 124.2329408  49.9279408  53.7140000 144.5659408  57.9129408  59.5880000
 144.9279408  57.0679408  59.3220000 145.1819408  58.2429408  60.2420000
 142.3159408  30.6029408  30.0200000 142.8489408  30.3259408  30.7650000
 142.9519408  30.8169408  29.3370000 122.0639408  32.4419408  49.6400000
 122.0359408  33.1009408  48.9460000 121.3919408  31.8059408  49.3950000
 136.0279408  59.2599408  48.5900000 135.0909408  59.1729408  48.4130000
 136.1359408  58.9249408  49.4800000 140.3859408  54.2079408  53.2040000
 140.0829408  55.1069408  53.3300000 139.8389408  53.6859408  53.7910000
 120.8689408  36.2169408  30.9050000 121.1979408  36.6709408  30.1290000
 121.6129408  36.1979408  31.5060000 124.5629408  55.8619408  55.9740000
 123.6279408  56.0279408  56.0910000 124.7009408  54.9909408  56.3480000
 130.0009408  56.2329408  51.9690000 130.8279408  55.7619408  52.0740000
 130.2609408  57.1449408  51.8330000 133.1139408  59.2469408  48.1040000
 133.4209408  58.6579408  47.4150000 132.3449408  59.6749408  47.7280000
 124.1209408  43.6749408  73.7610000 124.0209408  44.4239408  74.3480000
 124.6659408  43.0579408  74.2490000 139.4019408  47.0039408  63.4620000
 139.3069408  46.1259408  63.8320000 138.6369408  47.1089408  62.8970000
 126.9639408  57.2739408  64.1330000 126.2589408  56.7169408  64.4630000
 126.9889408  58.0129408  64.7410000 141.1249408  31.1489408  81.7350000
 140.9649408  30.2999408  81.3230000 141.6349408  31.6379408  81.0890000
 126.7109408  48.7099408  81.4700000 126.3839408  49.3649408  82.0880000
 127.6529408  48.8729408  81.4250000 131.8849408  41.9679408  72.0810000
 131.2899408  41.2449408  72.2800000 132.7569408  41.5759408  72.1090000
 125.8789408  36.9689408  68.7010000 125.4139408  36.1719408  68.4480000
 125.9029408  37.4959408  67.9020000 135.1049408  47.8279408  75.6050000
 134.2939408  47.6459408  75.1300000 135.7899408  47.7719408  74.9380000
 120.6359408  44.0729408  68.5360000 119.8129408  44.3929408  68.1640000
 120.9089408  43.3719408  67.9450000 138.8559408  48.6129408  69.2840000
 138.4689408  48.1719408  70.0410000 138.1489408  49.1559408  68.9360000
 129.0639408  38.6819408  77.8260000 128.4579408  38.2489408  78.4280000
 129.3939408  37.9759408  77.2700000 131.2259408  41.3479408  65.7040000
 130.6419408  41.7979408  66.3140000 131.6789408  40.6969408  66.2400000
 137.4669408  45.2269408  77.9080000 137.9479408  45.1439408  78.7320000
 138.1319408  45.1079408  77.2300000 142.0799408  39.5039408  66.3360000
 141.9909408  39.7379408  65.4120000 142.7389408  40.1109408  66.6740000
 149.3079408  48.9599408  75.2020000 149.6479408  49.5329408  75.8900000
 149.8979408  49.0979408  74.4610000 132.9309408  55.5519408  74.1980000
 133.8639408  55.3599408  74.1090000 132.5239408  55.1209408  73.4470000
 148.0369408  35.5629408  65.5490000 147.0969408  35.6829408  65.4130000
 148.2159408  34.6789408  65.2300000 138.3629408  51.3589408  60.6810000
 137.7089408  52.0489408  60.5670000 138.2789408  50.8169408  59.8970000
 130.6849408  45.9839408  66.6650000 131.1339408  46.8249408  66.7490000
 129.8769408  46.0929408  67.1670000 148.7999408  39.9389408  75.7730000
 147.8609408  39.9999408  75.5990000 148.8569408  39.5959408  76.6650000
 122.3889408  50.7699408  63.8460000 123.1819408  51.3059408  63.8470000
 122.6729408  49.9199408  64.1820000 137.9779408  44.4559408  70.6650000
 137.2519408  44.3639408  70.0480000 137.7039408  43.9559408  71.4340000
 133.5299408  44.6779408  60.5350000 132.9009408  43.9769408  60.7060000
 133.0779408  45.2629408  59.9270000 136.9329408  52.0279408  73.3670000
 137.2779408  52.9039408  73.1980000 137.6629408  51.4399408  73.1730000
 131.7599408  53.1179408  68.5430000 131.6899408  53.8819408  67.9720000
 132.0759408  52.4179408  67.9710000 134.5309408  56.0489408  61.8910000
 135.1549408  56.0429408  61.1650000 134.9719408  55.5639408  62.5890000
 121.5889408  37.8679408  65.1380000 121.9129408  37.0799408  64.7030000
 122.3749408  38.2939408  65.4810000 124.3779408  31.6949408  76.6380000
 123.4469408  31.8319408  76.4640000 124.7679408  31.5709408  75.7730000
 131.0189408  32.1809408  78.1460000 130.7569408  33.1019408  78.1390000
 131.6919408  32.1279408  78.8240000 135.1549408  30.6799408  68.8720000
 134.7649408  31.4279408  68.4200000 135.0899408  29.9599408  68.2450000
 135.4189408  44.0349408  73.0950000 134.8099408  43.9809408  73.8320000
 134.8679408  44.2559408  72.3440000 126.8749408  56.9259408  69.7580000
 127.0919408  57.8089408  70.0560000 127.0169408  56.9499408  68.8120000
 148.5349408  45.5709408  67.6430000 148.4489408  46.1489408  66.8850000
 148.1879408  46.0809408  68.3750000 128.3539408  36.3839408  63.5020000
 129.0179408  36.9059408  63.0520000 127.9879408  36.9769408  64.1590000
 144.3849408  39.4109408  77.3650000 144.7209408  38.5179408  77.2950000
 144.2909408  39.5589408  78.3060000 127.7939408  43.7699408  67.0920000
 127.1589408  43.5089408  67.7590000 128.3649408  43.0079408  66.9930000
 129.0859408  32.8069408  72.3010000 129.2659408  33.2629408  71.4790000
 129.7729408  33.1059408  72.8980000 135.8509408  43.9929408  69.0110000
 135.1649408  44.5659408  68.6690000 135.4019408  43.1709408  69.2080000
 127.6489408  47.3009408  72.5020000 127.1329408  47.8939408  73.0490000
 127.6139408  46.4609408  72.9600000 142.4549408  33.6049408  62.6640000
 141.6819408  33.5749408  62.1000000 142.7979408  34.4919408  62.5530000
 141.2289408  50.5009408  74.9470000 140.8759408  51.0379408  75.6570000
 141.9479408  51.0209408  74.5870000 131.1919408  56.2969408  61.5580000
 131.2509408  57.2469408  61.6600000 131.6389408  55.9449408  62.3270000
 124.6869408  33.6109408  72.3470000 123.8339408  33.9499408  72.0730000
 125.2309408  34.3909408  72.4540000 131.3659408  50.8169408  72.9800000
 131.3449408  51.5859408  72.4090000 132.2869408  50.5579408  72.9990000
 135.5709408  34.5019408  83.2080000 136.1229408  35.1429408  82.7600000
 135.2669408  33.9189408  82.5130000 134.5329408  49.5259408  67.8070000
 134.0209408  48.9609408  68.3850000 133.9069408  50.1799408  67.4950000
 124.9169408  44.0799408  66.0540000 125.2429408  43.2809408  66.4690000
 124.3959408  44.5079408  66.7330000 131.9419408  34.9309408  78.4310000
 132.8109408  35.3169408  78.3240000 131.7659408  34.9919408  79.3700000
 122.9999408  53.7209408  64.9930000 122.5599408  53.1309408  65.6050000
 123.7909408  53.2499408  64.7310000 129.3909408  35.9979408  73.5600000
 128.4679408  35.8209408  73.7410000 129.5449408  35.6099408  72.6990000
 126.4589408  49.0469408  74.2110000 125.7969408  48.9559408  74.8960000
 127.0899408  49.6709408  74.5690000 132.7269408  34.7419408  73.0350000
 133.5559408  34.2759408  72.9230000 132.3699408  34.4009408  73.8560000
 130.9189408  45.5149408  71.9010000 130.0709408  45.1079408  71.7250000
 130.7289408  46.4519408  71.9560000 131.2779408  38.6519408  69.3500000
 131.3409408  37.9429408  69.9910000 130.6729408  39.2789408  69.7440000
 127.3769408  58.8119408  61.6800000 126.6809408  58.2869408  61.2850000
 127.2869408  58.6599408  62.6210000 135.6899408  48.6069408  64.5490000
 135.8669408  48.6029408  63.6090000 136.2479408  47.9129408  64.9010000
 126.0069408  30.8799408  64.4630000 126.8559408  30.4709408  64.2940000
 126.1609408  31.8149408  64.3310000 129.4119408  38.7209408  66.5640000
 129.9009408  38.4549408  67.3430000 130.0189408  39.2819408  66.0810000
 130.9679408  48.3959408  75.9660000 131.6029408  47.8829408  75.4660000
 130.1389408  47.9329408  75.8490000 129.0729408  40.0809408  69.9790000
 129.3089408  40.3209408  70.8750000 128.1399408  39.8699408  70.0250000
 128.6629408  53.0849408  65.7270000 129.1639408  52.7029408  66.4480000
 129.3049408  53.2099408  65.0280000 132.1909408  33.0269408  66.6490000
 132.5829408  33.5069408  67.3790000 132.8259408  32.3399408  66.4440000
 122.7639408  40.3209408  75.9390000 122.1979408  40.7929408  75.3280000
 122.1579408  39.8679408  76.5260000 123.7929408  35.9289408  78.5460000
 124.5359408  35.3939408  78.2680000 123.0419408  35.5539408  78.0850000
 127.2649408  35.4869408  70.7700000 126.6499408  36.0649408  70.3180000
 127.6409408  34.9459408  70.0760000 124.4899408  34.3149408  68.6110000
 123.8189408  33.6769408  68.8510000 124.7519408  34.0669408  67.7250000
 138.2059408  41.1969408  71.0920000 138.7899408  41.1579408  70.3350000
 137.3289408  41.0939408  70.7250000 132.6159408  32.7419408  62.6460000
 132.2479408  33.1119408  61.8440000 133.2749408  33.3789408  62.9240000
 123.9959408  40.0319408  79.2360000 124.7059408  39.4889408  78.8920000
 124.1359408  40.8909408  78.8370000 133.6049408  39.6929408  63.1680000
 134.0819408  38.9459408  63.5280000 134.2209408  40.4239408  63.2310000
 130.6809408  41.2849408  60.4750000 130.9629408  41.9649408  59.8630000
 130.5939408  41.7389408  61.3140000 126.1979408  58.7859408  67.3920000
 125.6229408  59.3219408  67.9370000 126.9389408  59.3569408  67.1890000
 135.6389408  36.6119408  68.9870000 135.6199408  36.6119408  69.9440000
 136.5409408  36.8459408  68.7660000 136.1629408  50.3279408  69.8410000
 135.8969408  50.1039408  68.9500000 135.7949408  49.6309408  70.3840000
 138.8369408  49.6889408  73.6890000 139.6529408  49.8079408  74.1740000
 139.0429408  49.9709408  72.7980000 127.3569408  44.9479408  74.1060000
 126.7409408  44.6609408  74.7800000 127.7119408  44.1349408  73.7450000
 142.1589408  41.9809408  68.6940000 142.2029408  42.9319408  68.6020000
 142.8179408  41.6489408  68.0840000 121.5759408  31.8369408  72.3790000
 121.6699408  31.3979408  71.5340000 121.7809408  32.7539408  72.1980000
 129.7979408  43.5629408  80.7020000 129.9119408  42.6129408  80.6900000
 130.2249408  43.8659408  79.9000000 132.6309408  43.1459408  74.3340000
 132.2629408  43.3379408  73.4710000 132.9819408  42.2589408  74.2530000
 130.1429408  38.5439408  62.9460000 130.7999408  38.6049408  62.2530000
 130.5939408  38.8529408  63.7320000 124.7069408  45.4199408  83.1280000
 124.5639408  45.8999408  82.3120000 124.9709408  46.0909408  83.7570000
 122.9149408  46.4549408  74.3630000 123.5279408  47.1049408  74.7050000
 122.2449408  46.3749408  75.0420000 129.9729408  31.6209408  69.1660000
 130.8859408  31.7839408  68.9290000 130.0159408  31.2549408  70.0490000
 132.5159408  39.3919408  67.0440000 132.9239408  38.9559408  66.2950000
 132.6179408  38.7729408  67.7670000 140.6819408  44.5549408  70.8580000
 140.4699408  44.9719408  71.6930000 139.8309408  44.3559408  70.4670000
 125.0659408  42.1979408  78.1450000 125.8319408  41.7159408  77.8330000
 124.6889408  42.5859408  77.3550000 124.4699408  36.9909408  81.0950000
 124.3759408  36.7169408  80.1820000 124.4599408  37.9469408  81.0610000
 136.7989408  38.8369408  81.9130000 136.1259408  38.2629408  81.5470000
 137.3839408  38.2479408  82.3890000 137.3339408  31.3149408  77.3720000
 137.1459408  32.1649408  77.7700000 136.5919408  30.7639408  77.6200000
 124.3569408  54.6489408  73.1330000 125.1819408  55.0809408  72.9100000
 123.8739408  55.2999408  73.6410000 126.0859408  44.8579408  71.4430000
 125.4669408  45.3769408  70.9300000 125.9959408  45.1919408  72.3360000
 133.4409408  46.1729408  68.5040000 133.3789408  45.9409408  67.5780000
 132.7799408  46.8539408  68.6260000 128.5019408  34.1379408  68.6120000
 128.8629408  34.4539408  67.7840000 128.9809408  33.3279408  68.7890000
 129.2219408  59.9579408  79.5540000 129.1209408  59.3189408  78.8490000
 129.7729408  60.6449408  79.1780000 125.8979408  56.1729408  75.7840000
 124.9769408  56.4009408  75.6590000 126.2559408  56.1269408  74.8980000
 124.1719408  38.0399408  66.5580000 123.5999408  38.3309408  67.2680000
 124.3229408  38.8259408  66.0330000 140.9309408  38.1219408  77.8530000
 140.4899408  38.4399408  78.6410000 141.2959408  38.9089408  77.4480000
 123.5469408  59.1949408  74.3880000 123.4529408  58.7309408  73.5560000
 124.0779408  59.9629408  74.1760000 127.6459408  45.5889408  60.5610000
 128.1379408  44.9059408  61.0160000 128.1499408  46.3889408  60.7110000
 129.7719408  32.8839408  65.6410000 130.6209408  32.7349408  66.0590000
 129.7999408  32.3549408  64.8440000 129.0259408  46.3989408  75.6100000
 128.7289408  46.0099408  76.4320000 128.4029408  46.0809408  74.9560000
 144.9449408  40.7089408  82.4340000 144.4059408  40.1399408  82.9830000
 144.3479408  41.3989408  82.1430000 132.9919408  36.0789408  80.9050000
 133.2669408  36.9929408  80.8340000 133.4549408  35.7489408  81.6750000
 139.7759408  47.0209408  66.7930000 139.6259408  47.7959408  66.2530000
 139.1299408  47.0889408  67.4960000 144.9269408  45.3199408  69.5870000
 145.3159408  44.5869408  70.0650000 145.3279408  45.2809408  68.7190000
 125.7419408  41.5499408  72.2860000 125.5099408  41.7689408  73.1890000
 126.5849408  41.9799408  72.1450000 149.0709408  32.3679408  73.5800000
 149.1899408  32.7229408  74.4610000 149.9599408  32.2269408  73.2550000
 135.3469408  37.8619408  73.5700000 135.5059408  37.1419408  72.9600000
 136.2199408  38.1279408  73.8590000 133.9419408  57.7469408  71.2050000
 133.6119408  57.6369408  72.0970000 133.2129408  58.1429408  70.7270000
 122.4759408  43.4329408  71.5170000 122.9669408  43.3179408  72.3310000
 122.3929408  44.3819408  71.4200000 124.0809408  40.9719408  70.1910000
 123.3579408  41.5829408  70.3280000 124.6869408  41.1519408  70.9110000
 122.4699408  32.2689408  69.4860000 121.9209408  33.0069408  69.2190000
 121.8819408  31.5139408  69.4670000 123.0199408  46.0899408  71.5960000
 122.9749408  46.1599408  72.5500000 123.1089408  46.9939408  71.2930000
 132.5739408  44.1909408  76.7410000 132.6879408  43.7449408  75.9010000
 133.3929408  44.6689408  76.8720000 129.4949408  45.9309408  63.8740000
 129.7659408  45.7989408  64.7830000 129.9059408  46.7569408  63.6190000
 128.0449408  48.2839408  77.2700000 127.8129408  47.5769408  77.8720000
 128.2419408  47.8409408  76.4450000 128.0199408  31.0509408  74.0630000
 128.1869408  31.8039408  73.4960000 128.5849408  31.1939408  74.8240000
 132.3299408  53.4389408  64.0320000 131.5709408  52.9229408  63.7610000
 133.0749408  53.0059408  63.6160000 122.1229408  52.1309408  77.8600000
 122.8419408  51.8089408  77.3180000 122.3069408  53.0629408  77.9750000
 138.9909408  38.3469408  65.9690000 139.9089408  38.3779408  66.2400000
 138.8449408  37.4349408  65.7200000 125.8029408  46.0779408  64.3120000
 126.5949408  45.6419408  63.9980000 125.6179408  45.6609408  65.1540000
 135.6349408  41.6509408  63.7230000 136.4549408  41.1739408  63.8460000
 135.4639408  42.0589408  64.5730000 133.6209408  45.0579408  71.2560000
 132.8359408  45.3699408  71.7060000 133.5009408  45.3309408  70.3470000
 126.7349408  40.4089408  76.9120000 127.6709408  40.2119408  76.8740000
 126.3309408  39.5979408  77.2210000 129.1019408  49.7299408  82.1000000
 129.8669408  49.3959408  81.6300000 129.3469408  50.6199408  82.3550000
 128.8879408  50.4159408  61.5990000 128.2829408  49.7779408  61.9770000
 128.7719408  51.2019408  62.1330000 133.4439408  30.5639408  65.1250000
 134.2609408  30.5429408  65.6220000 133.7179408  30.5099408  64.2090000
 128.1309408  47.3219408  69.6840000 128.1119408  48.2399408  69.4110000
 127.9969408  47.3509408  70.6310000 131.8609408  38.8709408  60.8180000
 131.4729408  39.7019408  60.5460000 132.8049408  39.0259408  60.7920000
 134.0549408  50.7059408  79.8650000 133.1819408  50.5199408  80.2090000
 134.1139408  50.1809408  79.0660000 128.7819408  44.8269408  70.5120000
 127.8989408  44.6719408  70.8490000 128.7299408  45.6859408  70.0920000
 145.7759408  45.5769408  75.5950000 146.5949408  45.4519408  75.1160000
 145.8309408  44.9639408  76.3280000 134.7319408  35.0299408  66.7360000
 135.2879408  34.2539408  66.6670000 135.2679408  35.6689408  67.2060000
 134.8019408  45.4929408  76.8610000 134.9129408  46.3009408  76.3600000
 135.6729408  45.3059408  77.2110000 147.4529408  42.4809408  72.6510000
 146.9679408  41.6609408  72.7380000 148.3159408  42.2169408  72.3320000
 139.8039408  40.9529408  68.8190000 140.7069408  41.2619408  68.7410000
 139.2889408  41.5889408  68.3220000 133.6759408  42.0399408  68.3110000
 132.9579408  42.4469408  68.7970000 133.3909408  41.1369408  68.1740000
 124.4319408  29.9699408  69.1520000 124.9539408  30.3289408  69.8690000
 123.7079408  30.5879408  69.0490000 123.1979408  45.2869408  67.9950000
 122.5999408  45.4139408  67.2590000 122.7259408  44.7069408  68.5910000
 133.4919408  40.2479408  75.4210000 134.1179408  40.9619408  75.5410000
 134.0109408  39.5349408  75.0460000 148.8019408  36.7519408  75.1170000
 148.5949408  36.3399408  74.2790000 147.9779408  37.1509408  75.3980000
 126.3509408  42.5299408  80.8020000 125.7639408  42.6359408  80.0530000
 126.8079408  43.3679408  80.8690000 122.1939408  32.4329408  75.0200000
 121.9859408  32.0149408  74.1840000 122.7589408  33.1699408  74.7850000
 140.3539408  31.1919408  74.3940000 141.2449408  31.0649408  74.0680000
 140.3279408  32.1089408  74.6690000 132.9529408  48.1909408  64.7110000
 132.8259408  48.4779408  65.6150000 133.8859408  48.3269408  64.5450000
 131.2079408  43.2309408  69.6310000 131.4929408  43.1859408  70.5430000
 130.4689408  43.8389408  69.6400000 125.2889408  46.5969408  61.2440000
 126.1979408  46.4009408  61.4730000 125.0949408  46.0109408  60.5130000
 125.9609408  31.2959408  70.8390000 126.7089408  31.8909408  70.8830000
 125.2019408  31.8499408  71.0230000 134.0369408  39.3019408  70.0320000
 133.0859408  39.2279408  69.9500000 134.3769408  38.5189408  69.5980000
 133.8409408  45.9929408  79.9150000 133.3829408  45.6059408  79.1690000
 134.1529408  46.8389408  79.5910000 137.9259408  43.8949408  74.1400000
 136.9729408  43.9149408  74.2200000 138.2449408  44.1439408  75.0080000
 137.9639408  34.7779408  60.3340000 137.0519408  35.0459408  60.4500000
 138.1979408  34.3589408  61.1630000 126.0819408  41.7559408  63.1260000
 125.2619408  42.2489408  63.0890000 126.7199408  42.3779408  63.4750000
 140.7849408  41.9599408  77.6010000 141.3309408  41.2469408  77.2700000
 140.9109408  42.6709408  76.9720000 136.0959408  40.7469408  69.5820000
 135.3069408  40.3579408  69.9590000 136.3329408  40.1619408  68.8630000
 131.8799408  41.9409408  63.1400000 131.5959408  41.9629408  64.0530000
 132.2839408  41.0799408  63.0340000 130.6029408  48.1769408  72.3180000
 129.6709408  48.0139408  72.4610000 130.6839408  49.1309408  72.3230000
 136.8019408  50.5669408  75.9690000 137.5409408  49.9729408  75.8380000
 136.7199408  51.0359408  75.1380000 126.3819408  33.8779408  66.2780000
 126.8239408  34.1609408  67.0780000 126.7769408  34.4079408  65.5850000
 137.8219408  40.6709408  84.7140000 137.0509408  40.2079408  84.3860000
 138.5589408  40.2549408  84.2680000 140.9929408  46.8169408  61.4860000
 141.3499408  47.6909408  61.3270000 140.4049408  46.9299408  62.2320000
 147.1529408  43.0869408  76.5300000 147.5009408  42.5009408  77.2020000
 146.4709408  42.5749408  76.0950000 148.4819408  40.9349408  69.6410000
 148.8959408  41.1749408  70.4700000 148.9019408  41.4979408  68.9910000
 134.8989408  56.5689408  68.8670000 134.8359408  56.8249408  69.7880000
 134.8469408  55.6129408  68.8800000 126.4319408  39.2409408  69.6680000
 125.6539408  39.7959408  69.6110000 126.1929408  38.4429408  69.1960000
 137.9739408  40.1959408  64.3400000 138.5639408  40.9399408  64.4650000
 138.2259408  39.5729408  65.0210000 134.5639408  41.3319408  72.5050000
 135.3129408  41.9219408  72.4160000 134.8419408  40.5249408  72.0710000
 125.8949408  49.3489408  70.4970000 125.2319408  49.5939408  71.1420000
 125.4229408  48.8129408  69.8600000 130.5329408  34.8369408  71.0850000
 130.4469408  35.5079408  70.4070000 131.3799408  35.0149408  71.4930000
 128.3729408  53.4639408  73.1860000 129.1639408  53.9339408  72.9220000
 127.6539408  53.9979408  72.8490000 128.0019408  43.8009408  64.2870000
 128.6839408  44.4149408  64.0160000 127.9259408  43.9279408  65.2330000
 128.5919408  50.0079408  71.6570000 127.6919408  49.6829408  71.6220000
 128.5009408  50.9549408  71.7650000 128.5059408  59.5499408  64.7200000
 129.2599408  59.8159408  64.1930000 128.6619408  59.9459408  65.5770000
 124.0379408  57.2559408  69.9530000 124.9729408  57.0479408  69.9550000
 123.9999408  58.1869408  69.7350000 137.8569408  35.7969408  66.3200000
 138.7739408  35.6119408  66.1180000 137.3679408  35.4069408  65.5960000
 144.8209408  37.4299408  68.6100000 144.9309408  36.7309408  67.9650000
 145.4989408  38.0679408  68.3900000 129.6499408  41.8419408  67.8760000
 130.4039408  42.2779408  68.2730000 129.2779408  41.3139408  68.5820000
 137.8409408  41.3329408  81.0730000 137.5779408  40.4969408  81.4570000
 137.0239408  41.8229408  80.9800000 136.4069408  33.6289408  79.0480000
 137.1099408  34.2789408  79.0450000 136.1969408  33.5069408  79.9740000
 131.6449408  38.1269408  83.6070000 131.9199408  37.4939408  84.2710000
 131.9309408  38.9729408  83.9510000 138.3389408  38.6359408  77.0160000
 138.1949408  39.4509408  77.4970000 139.2549408  38.4159408  77.1850000
 127.8239408  39.7049408  61.9020000 128.6989408  39.3949408  62.1340000
 127.3699408  39.7939408  62.7400000 133.4879408  38.3599408  77.7820000
 132.5719408  38.4729408  78.0380000 133.7179408  39.1799408  77.3450000
 147.1329408  43.4899408  66.5760000 146.2129408  43.7239408  66.4540000
 147.5309408  44.2739408  66.9540000 125.3919408  39.8369408  81.5440000
 124.4879408  40.0839408  81.7380000 125.8819408  40.6569408  81.5990000
 135.6989408  43.6459408  81.5090000 134.9289408  44.2119408  81.4530000
 135.7449408  43.3939408  82.4310000 125.3759408  35.8509408  64.5400000
 125.9379408  36.5929408  64.3170000 125.1269408  36.0039408  65.4520000
 141.4999408  50.8909408  81.6630000 141.5299408  51.8449408  81.5890000
 141.2169408  50.5929408  80.7990000 136.1989408  42.7839408  84.3270000
 136.9519408  42.3809408  84.7590000 135.5079408  42.1229408  84.3830000
 140.3079408  42.6819408  81.5200000 139.5659408  42.7069408  82.1230000
 140.0339408  43.2229408  80.7790000 143.5869408  41.2759408  63.3410000
 142.6949408  41.6219408  63.3230000 144.1119408  41.9439408  62.9000000
 127.8799408  56.0279408  83.7110000 128.5289408  56.2299408  83.0370000
 127.0729408  55.8609408  83.2240000 138.4169408  44.7709408  80.7260000
 138.8399408  45.1919408  81.4750000 137.5249408  44.5919408  81.0240000
 134.9759408  45.1649408  83.9550000 135.6309408  45.7189408  83.5300000
 135.4869408  44.4979408  84.4130000 140.1269408  47.4139408  77.2570000
 140.8569408  48.0169408  77.1180000 140.2649408  47.0689408  78.1390000
 137.7229408  39.0149408  74.5310000 138.2079408  39.8399408  74.5330000
 137.7629408  38.7109408  75.4380000 137.0589408  34.2909408  63.6940000
 137.3229408  33.4279408  64.0130000 136.3329408  34.1129408  63.0950000
 132.1429408  43.0499408  83.4810000 132.7959408  43.1569408  82.7890000
 131.8279408  43.9369408  83.6530000 129.2999408  34.7489408  76.6790000
 128.4779408  34.7659408  76.1890000 129.0309408  34.7099408  77.5970000
 130.2849408  39.8869408  72.5980000 130.8409408  39.1149408  72.4900000
 130.1829408  39.9779408  73.5460000 148.8309408  37.2719408  62.2880000
 148.8699408  36.9779408  63.1980000 149.5399408  36.7969408  61.8530000
 137.8369408  35.8009408  78.3520000 138.7399408  35.6199408  78.0890000
 137.7859408  36.7559408  78.3950000 132.3099408  47.8379408  78.4750000
 131.5999408  47.7869408  77.8350000 132.9599408  48.4099408  78.0670000
 141.5769408  40.0929408  73.5580000 140.8019408  40.5149408  73.9290000
 141.6999408  40.5189408  72.7100000 125.6739408  53.6199408  60.0820000
 126.0949408  53.8689408  60.9050000 126.3839408  53.2649408  59.5480000
 123.0279408  48.2679408  61.4330000 123.1569408  49.2159408  61.4620000
 123.8729408  47.9189408  61.1520000 125.6639408  38.1749408  78.2520000
 126.2629408  37.8789408  78.9380000 125.1889408  37.3859408  77.9920000
 125.9109408  36.2639408  83.1760000 125.8639408  35.3079408  83.1610000
 125.2579408  36.5469408  82.5370000 123.5549408  42.7819408  63.2750000
 122.7219408  42.4139408  63.5720000 123.4619408  43.7249408  63.4110000
 140.1159408  33.8369408  75.0270000 140.6079408  34.5009408  74.5440000
 139.2639408  33.8059408  74.5920000 129.1499408  59.6889408  82.5040000
 129.9349408  60.2339408  82.5540000 129.1679408  59.3219408  81.6200000
 129.0229408  40.0999408  83.4030000 128.3649408  40.6929408  83.7660000
 128.5369408  39.3039408  83.1870000 122.6359408  39.1879408  72.6550000
 122.1249408  39.8089408  73.1730000 121.9839408  38.6069408  72.2650000
 130.1199408  31.7629408  63.4120000 129.5699408  31.8339408  62.6310000
 130.9739408  32.0939408  63.1340000 144.7679408  36.0699408  77.1460000
 143.8289408  36.0299408  76.9640000 145.1819408  35.7409408  76.3480000
 125.1569408  41.4689408  75.1180000 124.3929408  41.0489408  75.5120000
 125.9069408  41.0229408  75.5130000 136.3049408  47.8459408  78.6500000
 136.4699408  48.5339408  78.0040000 136.6669408  47.0539408  78.2540000
 131.4229408  31.4139408  82.3640000 131.7979408  31.2949408  83.2370000
 132.1729408  31.6199408  81.8060000 124.3739408  32.0349408  82.5920000
 125.0449408  32.5869408  82.9950000 123.7539408  32.6539408  82.2080000
 132.7309408  42.2139408  78.9580000 132.2289408  41.4239408  78.7610000
 132.6519408  42.7509408  78.1690000 127.4109408  38.2469408  82.5390000
 127.0039408  37.3889408  82.6570000 126.8979408  38.6629408  81.8460000
 138.8269408  33.5309408  82.3500000 138.8589408  32.6169408  82.6340000
 139.3369408  33.5479408  81.5400000 133.0339408  44.4019408  63.2410000
 133.4299408  44.6769408  62.4150000 132.6019408  43.5729408  63.0360000
 134.6579408  31.6439408  84.3280000 135.2989408  31.5509408  85.0330000
 133.8909408  32.0299408  84.7510000 129.2199408  40.8319408  80.8010000
 128.2959408  40.9889408  80.6070000 129.2279408  40.5439408  81.7140000
 128.1889408  47.1529408  83.5900000 129.0689408  47.0679408  83.9560000
 127.9749408  48.0809408  83.6910000 127.2109408  38.0059408  65.3860000
 126.6419408  38.7579408  65.5510000 127.9689408  38.1489408  65.9520000
 141.0649408  39.6399408  62.0140000 141.5329408  39.0169408  62.5690000
 141.5449408  39.6309408  61.1850000 124.8949408  48.8529408  66.4910000
 125.2919408  49.6979408  66.7040000 125.4089408  48.5259408  65.7530000
 120.8779408  59.1329408  61.2170000 121.1779408  59.6449408  60.4660000
 121.0379408  58.2229408  60.9670000 126.9089408  34.5699408  75.4710000
 126.4269408  35.1219408  74.8560000 126.2819408  34.3849408  76.1700000
 136.1519408  46.8349408  66.9130000 135.4469408  46.5409408  66.3350000
 135.7099408  47.0769408  67.7270000 135.4429408  30.1609408  73.2290000
 136.1079408  29.5109408  73.4580000 135.5879408  30.8799408  73.8430000
 144.0269408  49.3799408  81.4100000 144.2849408  48.4959408  81.6720000
 143.1719408  49.5119408  81.8210000 134.3959408  48.1949408  70.7400000
 134.3709408  48.1429408  71.6950000 134.2869408  47.2889408  70.4480000
 124.5679408  42.7609408  83.3450000 124.5269408  43.7069408  83.4870000
 124.8839408  42.6679408  82.4460000 141.5419408  32.2789408  84.3060000
 141.1949408  32.1159408  83.4290000 141.4429408  31.4439408  84.7630000
 134.6329408  53.1429408  70.1660000 134.8209408  53.6079408  69.3500000
 134.7559408  52.2189408  69.9490000 135.3159408  42.0549408  76.3340000
 134.9349408  42.8129408  76.7780000 136.1729408  41.9419408  76.7450000
 142.2929408  47.8109408  83.8080000 142.1829408  47.0259408  84.3450000
 142.7159408  48.4419408  84.3890000 129.7159408  47.2639408  60.6440000
 130.4809408  46.8889408  60.2080000 130.0779408  47.7609408  61.3780000
 127.2109408  41.8149408  84.3940000 126.3699408  42.1359408  84.0660000
 127.5599408  42.5409408  84.9100000 120.1669408  38.8079408  80.3710000
 119.8829408  38.0049408  80.8070000 119.9809408  39.5029408  81.0020000
 131.3649408  39.9299408  78.7550000 130.7509408  39.2719408  78.4300000
 131.2129408  39.9549408  79.7000000 134.3869408  50.9349408  61.0510000
 133.5169408  51.2199408  60.7720000 134.8489408  50.7409408  60.2360000
 130.7769408  39.9669408  75.3550000 131.7099408  40.1599408  75.2610000
 130.7469408  39.1889408  75.9110000 139.8279408  45.7489408  73.0870000
 140.5869408  45.7009408  73.6680000 139.2939408  44.9909408  73.3260000
 148.4329408  31.3169408  77.7720000 148.3759408  30.3929408  78.0160000
 148.3789408  31.7879408  78.6040000 136.9629408  46.6139408  82.6300000
 136.8069408  47.5369408  82.8310000 137.8629408  46.5879408  82.3060000
 146.9299408  41.9079408  61.8610000 146.9209408  42.4829408  62.6270000
 147.6339408  41.2839408  62.0360000 135.8339408  33.3109408  61.4930000
 136.3929408  32.5349408  61.4550000 135.4889408  33.4019408  60.6050000
 120.8749408  33.4179408  83.9600000 120.5559408  32.5409408  83.7490000
 121.6379408  33.5389408  83.3940000 133.8929408  49.7199408  77.2500000
 133.8199408  50.5249408  76.7370000 134.7049408  49.3139408  76.9450000
 130.5189408  37.1779408  75.9270000 130.5439408  36.3239408  76.3590000
 130.1409408  36.9999408  75.0660000 135.9109408  57.6449408  80.9300000
 135.4609408  56.9469408  80.4540000 135.2979408  57.8989408  81.6190000
 137.6369408  60.0739408  82.6510000 137.4279408  59.3739408  82.0330000
 137.3079408  59.7569408  83.4920000 127.9469408  37.0969408  79.7360000
 127.9239408  36.1409408  79.7090000 128.7869408  37.3059408  80.1460000
 136.8989408  59.9439408  65.6780000 136.7499408  59.2089408  66.2740000
 136.6159408  59.6199408  64.8230000 129.8299408  57.2289408  65.4010000
 128.9329408  57.4469408  65.1470000 130.3679408  57.5429408  64.6740000
 121.1219408  36.0539408  69.6410000 120.6489408  36.3209408  68.8530000
 121.9209408  36.5809408  69.6320000 131.1519408  52.9069408  80.7830000
 131.1849408  51.9589408  80.9060000 130.5209408  53.0349408  80.0740000
 131.0869408  55.7069408  67.3250000 130.8939408  56.1889408  68.1280000
 130.7599408  56.2699408  66.6230000 122.6749408  48.7829408  70.9760000
 123.1839408  49.3299408  71.5740000 123.0549408  48.9529408  70.1140000
 133.9669408  45.5319408  65.7910000 134.1179408  44.5939408  65.6770000
 133.3829408  45.7699408  65.0710000 122.1679408  34.6769408  72.0900000
 121.6919408  35.0179408  71.3330000 121.8439408  35.1909408  72.8290000
 129.7219408  58.0699408  68.6160000 129.4219408  58.0619408  67.7080000
 129.1469408  58.6979408  69.0530000 131.7279408  50.3879408  81.2710000
 131.6209408  49.5149408  80.8940000 132.3419408  50.2629408  81.9960000
 148.0529408  55.8899408  72.2050000 148.2489408  56.7309408  72.6180000
 147.0989408  55.8779408  72.1250000 133.8599408  36.7389408  62.4700000
 133.0679408  37.2019408  62.1940000 133.5509408  36.0939408  63.1060000
 124.9999408  59.5199408  78.2440000 125.1339408  59.6689408  79.1800000
 124.6149408  60.3359408  77.9240000 130.5059408  49.8669408  66.1100000
 129.8559408  49.5139408  65.5030000 129.9949408  50.3779408  66.7380000
 133.0909408  35.1259408  64.6640000 133.6829408  35.1169408  65.4160000
 132.3979408  34.5079408  64.8970000 123.3269408  54.6049408  79.3680000
 124.2059408  54.2289408  79.3230000 123.4169408  55.4729408  78.9750000
 120.0379408  51.4779408  64.6990000 120.9309408  51.1549408  64.5830000
 119.4899408  50.8369408  64.2450000 135.7609408  55.8819408  64.7460000
 135.6409408  55.0999408  64.2060000 134.9199408  55.9989408  65.1890000
 134.2179408  50.3289408  73.1910000 134.4609408  51.2159408  72.9250000
 135.0449408  49.9189408  73.4450000 137.6079408  51.4719408  81.4500000
 137.1129408  52.1989408  81.8280000 137.2049408  50.6879408  81.8230000
 132.8429408  54.9729408  81.9030000 132.4879408  54.2539408  81.3800000
 133.3269408  55.5089408  81.2750000 124.6779408  52.4899408  76.5850000
 125.2769408  53.2359408  76.6160000 125.2109408  51.7439408  76.8610000
 125.7979408  51.3969408  66.7650000 126.4539408  51.7799408  67.3470000
 124.9819408  51.4349408  67.2640000 137.4849408  57.6719408  67.7400000
 136.6389408  57.2889408  67.9700000 137.8719408  57.0489408  67.1250000
 122.3099408  48.7869408  65.5240000 121.6629408  48.6259408  66.2120000
 123.1549408  48.6519408  65.9530000 134.3059408  58.7819408  67.3720000
 134.7559408  58.1469408  67.9280000 133.9669408  58.2639408  66.6420000
 144.3189408  54.7159408  74.1060000 144.8969408  53.9829408  73.8980000
 144.5489408  55.3919408  73.4680000 126.4959408  48.9039408  62.3800000
 125.9039408  49.5189408  61.9470000 125.9969408  48.0889408  62.4350000
 136.4369408  49.0669408  81.2430000 136.5039408  48.3559408  80.6060000
 135.6939408  49.5899408  80.9420000 127.2649408  53.0889408  63.3920000
 127.5729408  53.8519408  62.9040000 127.6459408  53.1919408  64.2640000
 130.3759408  53.4779408  77.1180000 129.6279408  53.2069408  77.6500000
 130.5139408  52.7509408  76.5100000 135.4449408  55.1009408  74.0140000
 136.2459408  55.2109408  73.5020000 135.0809408  54.2679408  73.7140000
 129.1669408  35.4379408  65.7480000 128.8509408  35.6709408  64.8750000
 129.4189408  34.5179408  65.6750000 124.2729408  50.1469408  72.5690000
 123.8439408  50.9559408  72.8460000 125.0339408  50.0699408  73.1450000
 123.2469408  45.4839408  63.2100000 123.6359408  46.1419408  62.6340000
 123.7999408  45.4919408  63.9910000 124.1789408  47.7809408  68.9290000
 124.2309408  48.1619408  68.0530000 123.5919408  47.0319408  68.8310000
 131.1639408  59.3629408  74.0990000 131.9599408  59.0219408  74.5070000
 130.8289408  60.0059408  74.7250000 131.2709408  59.4239408  60.7540000
 131.1439408  59.1009408  59.8620000 130.7259408  60.2099408  60.8040000
 130.1639408  44.3359408  77.9330000 129.7059408  43.4989408  77.8530000
 130.9369408  44.2409408  77.3770000 126.7049408  54.8669408  67.0240000
 127.3139408  54.3839408  66.4660000 126.0519408  55.2189408  66.4190000
 120.7809408  47.7779408  63.0700000 121.3749408  47.8329408  63.8190000
 121.3059408  48.0689408  62.3250000 126.9129408  56.0559408  73.0170000
 126.7609408  56.9919408  73.1450000 127.8609408  55.9539408  73.1010000
 129.9689408  55.5049408  71.5150000 130.0609408  56.2039408  72.1630000
 129.5309408  55.9229408  70.7730000 132.8559408  32.0519408  69.6080000
 133.6339408  31.5559408  69.8640000 132.6389408  32.5739408  70.3800000
 130.9059408  52.2719408  61.9450000 130.8709408  51.3879408  61.5790000
 130.4339408  52.8129408  61.3120000 120.6149408  44.7429408  62.4330000
 119.9859408  45.4539408  62.5520000 121.4659408  45.1429408  62.6100000
 135.8529408  53.8829408  67.9390000 135.9139408  53.7729408  66.9900000
 136.7569408  54.0099408  68.2250000 127.6779408  45.6369408  78.2270000
 127.3809408  45.6059408  79.1360000 128.4549408  45.0779408  78.2080000
 124.3649408  52.5619408  70.9050000 123.8259408  53.0119408  71.5560000
 125.0559408  53.1889408  70.6910000 131.6299408  53.2589408  71.2250000
 131.9139408  53.2529408  70.3110000 130.9499408  53.9319408  71.2610000
 123.3079408  52.3489408  74.1740000 123.6449408  53.1049408  73.6930000
 123.8179408  52.3319408  74.9840000 140.0859408  33.0319408  61.4180000
 140.4329408  32.3479408  60.8450000 139.2249408  32.7079408  61.6830000
 148.1769408  32.4219408  80.1510000 147.3749408  32.2089408  80.6290000
 148.4289408  33.2859408  80.4760000 139.2209408  58.9019408  69.3070000
 138.6819408  59.2899408  69.9960000 138.5979408  58.6619408  68.6210000
 120.7819408  46.6869408  75.9170000 120.1779408  46.2529408  76.5200000
 120.3069408  47.4619408  75.6180000 126.7389408  54.1779408  69.9850000
 126.8389408  55.0859408  70.2700000 126.8689408  54.2079408  69.0370000
 130.4329408  31.4439408  75.7220000 130.5989408  31.4719408  76.6650000
 130.7079408  32.3039408  75.4050000 123.3309408  49.3729408  78.2010000
 122.4419408  49.5659408  78.5000000 123.8949408  49.6769408  78.9110000
 146.3379408  38.5209408  74.7070000 145.9319408  39.3879408  74.7270000
 145.5999408  37.9109408  74.7000000 123.1059408  51.9459408  68.1800000
 123.4189408  52.7029408  68.6760000 122.1519408  52.0229408  68.2010000
 135.4369408  53.2539408  80.0090000 136.0059408  53.1119408  79.2530000
 135.0009408  52.4129408  80.1430000 127.0619408  51.4499408  69.2770000
 127.2629408  52.2119408  69.8210000 126.5489408  50.8769408  69.8470000
 132.0659408  58.8869408  69.7040000 131.2279408  58.5389408  69.3980000
 132.5209408  59.1529408  68.9050000 131.2699408  56.0949408  76.5260000
 131.8939408  56.0249408  75.8040000 131.2699408  55.2259408  76.9290000
 130.8659408  48.4719408  62.7640000 130.6719408  49.4039408  62.8690000
 131.5619408  48.2989408  63.3990000 133.6439408  30.4429408  61.8470000
 132.8629408  30.2199408  61.3410000 133.6489408  31.3999408  61.8730000
 123.1739408  30.5829408  64.5740000 124.1289408  30.6499408  64.5680000
 122.8779408  31.4079408  64.9580000 129.4209408  51.4549408  67.9740000
 128.8169408  51.4819408  68.7160000 130.2109408  51.8929408  68.2920000
 148.8549408  53.9129408  70.4620000 148.1329408  53.2899408  70.3720000
 148.5459408  54.5469408  71.1090000 129.8059408  45.8759408  81.7940000
 128.8959408  46.1509408  81.9020000 129.7489408  44.9669408  81.5000000
 145.4639408  55.1709408  68.5830000 144.5769408  55.4189408  68.3240000
 145.9009408  54.9499408  67.7600000 144.4759408  50.8279408  79.0240000
 145.3199408  51.0919408  78.6570000 144.7019408  50.2359408  79.7420000
 132.9509408  31.3049408  72.5350000 133.5739408  30.6049408  72.7320000
 132.1069408  30.9639408  72.8300000 149.8429408  56.8959408  68.9490000
 149.2369408  56.1979408  68.6960000 150.4319408  56.4839408  69.5810000
 133.2739408  56.0209408  65.5640000 133.0779408  55.8549408  66.4860000
 132.5129408  55.6839408  65.0920000 133.9679408  53.1959408  72.7510000
 133.0609408  53.1179408  72.4530000 134.4749408  53.3119408  71.9480000
 127.9659408  53.2009408  84.6000000 128.6309408  52.7009408  84.1270000
 127.9549408  54.0549408  84.1660000 148.8189408  58.9629408  79.5480000
 149.3499408  58.7979408  80.3270000 147.9169408  58.8389408  79.8420000
 127.1999408  32.1849408  79.7970000 127.7519408  31.4189408  79.6400000
 126.4489408  31.8439408  80.2840000 136.6659408  42.2829408  61.1970000
 136.1439408  43.0379408  60.9240000 136.2319408  41.9649408  61.9890000
 131.4439408  45.8639408  83.9440000 132.0879408  46.3889408  83.4680000
 130.7859408  45.6379408  83.2870000 134.5009408  42.8519408  65.8720000
 134.3729408  42.6739408  66.8040000 133.6179408  42.8409408  65.5020000
 130.8959408  49.7499408  69.9370000 130.1039408  49.8069408  70.4710000
 131.6099408  49.9329408  70.5480000 139.0259408  44.6979408  65.6060000
 139.1789408  45.5409408  66.0320000 138.8219408  44.0999408  66.3250000
 126.7689408  58.4729408  74.2330000 127.3599408  59.2059408  74.4070000
 125.9639408  58.6979408  74.6990000 147.3529408  30.3099408  72.8330000
 147.5099408  29.6729408  73.5300000 147.9369408  31.0399408  73.0390000
 132.1129408  48.3489408  67.7370000 131.7449408  48.5769408  68.5910000
 131.5649408  48.8179408  67.1070000 144.6629408  49.5749408  72.4850000
 144.9049408  48.8659408  73.0800000 144.1909408  49.1409408  71.7740000
 121.4539408  59.7109408  75.8930000 121.4329408  60.6619408  76.0040000
 122.2849408  59.5399408  75.4500000 126.8329408  50.5419408  77.8900000
 127.4509408  49.8449408  77.6710000 126.2749408  50.1639408  78.5700000
 145.2199408  44.8659408  61.3530000 145.3179408  44.0859408  60.8060000
 144.4369408  45.3009408  61.0120000 138.8679408  57.6099408  63.3490000
 139.7269408  57.3279408  63.6620000 138.2529408  57.2769408  64.0020000
 128.3579408  34.1779408  61.8600000 128.4489408  34.8209408  62.5630000
 127.5369408  33.7239408  62.0540000 131.2019408  58.7629408  63.4690000
 131.2119408  59.5939408  63.9450000 131.6049408  58.9659408  62.6240000
 126.1329408  53.5059408  80.1000000 126.3269408  53.2889408  79.1880000
 126.9599408  53.8419408  80.4480000 130.2109408  58.4339408  71.9620000
 131.0079408  58.2959408  71.4500000 130.5229408  58.6039408  72.8510000
 121.6809408  58.4499408  67.5820000 122.3499408  57.9409408  67.1260000
 120.8959408  57.9039408  67.5440000 145.9239408  52.7609408  73.2040000
 145.7279408  52.7439408  72.2670000 146.0819408  51.8459408  73.4340000
 139.3099408  56.6769408  74.0320000 139.6109408  56.8749408  74.9190000
 139.3619408  55.7229408  73.9680000 123.3539408  54.7089408  69.0660000
 123.7559408  55.5449408  69.3010000 122.5179408  54.9489408  68.6650000
 121.4129408  56.7549408  60.3960000 122.1889408  57.0679408  59.9310000
 121.2349408  55.8959408  60.0140000 149.6089408  57.8679408  75.3230000
 150.1049408  57.1339408  74.9590000 150.2649408  58.5469408  75.4810000
 142.3659408  44.6299408  68.6880000 141.7399408  44.6659408  69.4110000
 143.1379408  45.0919408  69.0160000 121.5119408  49.0599408  73.6060000
 120.8219408  49.4449408  73.0660000 122.0049408  48.5029408  73.0030000
 123.9449408  56.8669408  78.1460000 123.7629408  56.8199408  77.2080000
 124.4529408  57.6719408  78.2510000 133.2799408  52.0519408  75.6120000
 132.3279408  51.9589408  75.6370000 133.5199408  51.8259408  74.7140000
 132.9559408  51.3659408  66.3640000 133.4859408  51.8059408  65.6990000
 132.4029408  50.7609408  65.8690000 123.4409408  36.1809408  61.9050000
 124.0029408  36.8479408  61.5100000 123.9759408  35.7989408  62.6010000
 137.0119408  53.5979408  60.0990000 137.4669408  54.3679408  60.4400000
 136.1409408  53.9179408  59.8630000 138.2589408  42.5979408  67.4360000
 137.7069408  41.9699408  66.9700000 137.6589408  43.0499408  68.0290000
 120.1369408  33.5589408  65.8370000 119.9919408  32.6449408  65.5950000
 120.0729408  33.5669408  66.7920000 146.3759408  53.1479408  82.1470000
 145.9069408  53.8409408  81.6830000 147.2419408  53.1299408  81.7400000
 132.6159408  52.0489408  84.5270000 132.7129408  51.7699408  85.4380000
 133.1399408  51.4229408  84.0270000 124.7479408  56.4299408  62.0810000
 124.8309408  55.7089408  62.7050000 123.9279408  56.8609408  62.3190000
 129.2759408  56.4629408  74.7030000 129.7309408  56.2569408  75.5190000
 129.1089408  57.4049408  74.7520000 143.3719408  59.3539408  76.9710000
 143.3079408  58.3989408  76.9860000 142.9949408  59.6059408  76.1290000
 136.2559408  53.4489408  82.4580000 135.9049408  53.5529408  81.5740000
 135.4959408  53.5559408  83.0320000 126.9949408  45.9949408  80.7340000
 126.4209408  45.7369408  81.4560000 126.9939408  46.9519408  80.7580000
 136.4109408  57.9309408  76.0400000 136.7929408  58.4529408  76.7440000
 136.9819408  58.0879408  75.2870000 134.1419408  54.1589408  84.0840000
 133.6309408  53.3779408  84.2940000 133.5819408  54.6599408  83.4910000
 133.5379408  46.9969408  82.3460000 134.1009408  46.3869408  82.8230000
 133.4289408  46.5979408  81.4830000 133.4829408  49.4799408  83.5240000
 133.6019408  48.6709408  83.0260000 134.1959408  49.4769408  84.1620000
 125.5179408  50.8639408  60.6340000 124.6129408  50.9029408  60.3240000
 125.8689408  51.7369408  60.4600000 134.6979408  55.7839408  79.6430000
 134.8279408  55.7939408  78.6940000 134.6369408  54.8559408  79.8670000
 125.6269408  55.5319408  82.0670000 126.1349408  55.9269408  81.3580000
 125.2669408  54.7309408  81.6870000 144.5209408  47.0009408  82.3890000
 145.1209408  46.3069408  82.6620000 143.6929408  46.7869408  82.8180000
 130.6369408  51.0749408  75.7480000 131.0509408  50.3259408  76.1760000
 130.8889408  50.9959408  74.8280000 134.6019408  58.8039408  83.5100000
 135.1489408  58.3629408  84.1610000 134.6489408  59.7299408  83.7450000
 137.2359408  55.8399408  84.2300000 137.9919408  55.7569408  83.6490000
 136.6439408  55.1399408  83.9550000 136.3829408  55.0279408  76.5230000
 135.9809408  54.9789408  75.6560000 136.6939408  55.9299408  76.5930000
 119.8979408  55.6919408  82.9550000 119.7849408  54.8959408  83.4740000
 120.8379408  55.7319408  82.7780000 128.7329408  55.2859408  62.7840000
 129.4529408  55.3559408  62.1580000 128.2929408  56.1349408  62.7390000
 146.7709408  33.6649408  82.7270000 146.7729408  32.8369408  83.2070000
 147.3549408  34.2339408  83.2270000 129.9189408  33.5539408  81.8240000
 129.1149408  33.4609408  82.3350000 130.5089408  32.8899408  82.1800000
 128.4839408  42.6569408  72.7750000 128.7579408  43.2109408  72.0450000
 129.2489408  42.1129408  72.9640000 124.8689408  52.0059408  64.4930000
 125.4839408  52.3369408  63.8380000 125.3879408  51.9349408  65.2950000
 121.1839408  53.8679408  62.2820000 121.7039408  53.3719408  61.6500000
 121.6219408  53.7219408  63.1200000 121.2759408  50.9209408  82.3260000
 121.5259408  50.2529408  81.6880000 121.9619408  51.5849408  82.2600000
 127.4129408  56.2019408  80.0570000 127.4249408  56.6489408  79.2110000
 128.2419408  56.4469408  80.4690000 141.6459408  55.8579408  79.2480000
 141.8839408  55.4889408  78.3980000 141.1379408  55.1669408  79.6750000
 146.5009408  53.4099408  63.8900000 147.2679408  53.2959408  63.3290000
 146.1529408  54.2679408  63.6490000 132.1069408  58.3369408  82.1520000
 132.8629408  58.3479408  82.7390000 131.9139408  59.2609408  81.9920000
 126.9049408  59.6589408  84.4020000 127.4049408  59.1249408  85.0190000
 127.5369408  59.8999408  83.7250000 135.8789408  32.1039408  81.6990000
 135.5149408  31.9559408  82.5720000 136.7829408  31.7959408  81.7610000
 128.8949408  51.6709408  79.8570000 128.2309408  51.5909408  79.1720000
 128.9859408  50.7849408  80.2080000 139.3409408  49.3989408  80.3370000
 139.0289408  49.1119408  79.4790000 138.5439408  49.5879408  80.8320000
 133.0649408  31.5539408  80.0000000 133.9649408  31.6039408  80.3230000
 132.9399408  30.6309408  79.7800000 130.1359408  52.0139408  83.1660000
 130.2959408  52.4989408  82.3560000 130.9959408  51.9489408  83.5810000
 138.4869408  38.0279408  61.6070000 139.1999408  38.3819408  62.1380000
 138.0509408  38.7999408  61.2450000 134.4529408  50.9099408  63.7780000
 134.3679408  50.7669408  62.8350000 135.0229408  50.2019408  64.0770000
 127.1399408  57.5469408  77.6840000 126.8289408  57.2759408  76.8200000
 126.5409408  58.2459408  77.9460000 135.7979408  58.7229408  63.2530000
 135.6619408  57.7969408  63.0530000 135.1299408  59.1799408  62.7420000
 129.0859408  31.1759408  61.1750000 128.4019408  30.5059408  61.1510000
 128.6729408  31.9539408  60.8020000 128.0329408  59.1679408  70.5370000
 128.6119408  58.8459408  71.2270000 127.5109408  59.8489408  70.9610000
 132.8329408  46.8609408  73.8650000 132.4649408  45.9809408  73.9370000
 132.1939408  47.3459408  73.3420000 125.5019408  30.1759408  80.8970000
 125.1519408  30.8029408  81.5300000 125.3639408  29.3209408  81.3060000
 134.6709408  37.7959408  65.3550000 135.3629408  37.6749408  64.7050000
 134.3999408  36.9069408  65.5840000 132.2429408  36.3459408  67.8770000
 133.0639408  35.9189408  67.6340000 131.5769408  35.9019408  67.3520000
 144.9609408  45.1169408  66.4150000 144.0719408  45.3439408  66.1410000
 145.4919408  45.8699408  66.1570000 139.3769408  37.5459408  72.7920000
 139.5639408  37.9789408  71.9590000 138.9799408  38.2279408  73.3340000
 149.9389408  42.9329408  80.1570000 149.2409408  43.5489408  79.9330000
 149.5489408  42.0699408  80.0180000 143.4369408  38.0999408  74.6000000
 143.0629408  38.4679408  73.7990000 143.0709408  37.2169408  74.6520000
 147.4789408  33.9939408  70.6530000 147.3369408  34.2939408  69.7560000
 147.7139408  33.0699408  70.5640000 143.8419408  37.9109408  71.1330000
 143.2649408  38.4849408  70.6300000 144.5029408  37.6239408  70.5030000
 144.1399408  31.3499408  70.9420000 143.2239408  31.4689408  71.1920000
 144.1099408  30.7419408  70.2040000 120.0609408  36.7279408  77.5830000
 120.7789408  37.3319408  77.7720000 119.7179408  37.0209408  76.7390000
 139.3879408  42.0239408  61.7080000 138.4449408  42.1189408  61.5730000
 139.5609408  41.0969408  61.5410000 138.6229408  34.8899408  72.5080000
 139.1929408  34.4829408  71.8550000 138.9969408  35.7609408  72.6440000
 148.2209408  53.3229408  74.8680000 147.5639408  53.4529408  74.1850000
 149.0359408  53.1649408  74.3900000 147.7609408  32.7849408  63.9490000
 148.2159408  32.0179408  63.6010000 147.0409408  32.9349408  63.3370000
 135.8699408  37.0169408  60.6600000 135.2029408  36.8519408  61.3270000
 136.4569408  37.6569408  61.0610000 145.9399408  35.4359408  74.7680000
 146.1589408  35.8389408  73.9280000 145.7629408  34.5199408  74.5560000
 145.4509408  36.9699408  65.4990000 144.8859408  36.2069408  65.3780000
 145.7639408  37.1789408  64.6180000 120.4629408  52.8909408  73.2580000
 120.2129408  51.9829408  73.0880000 121.3599408  52.8359408  73.5870000
 134.7979408  41.2589408  80.4950000 134.1209408  41.7319408  80.0110000
 135.3779408  41.9449408  80.8280000 138.4659408  53.8039408  69.1880000
 138.8379408  54.6159408  68.8460000 138.9149408  53.1109408  68.7040000
 136.7079408  37.0059408  63.8860000 137.1969408  37.5149408  63.2390000
 136.7849408  36.0999408  63.5860000 125.6159408  33.9159408  77.9620000
 126.1299408  33.4149408  78.5940000 125.1099408  33.2559408  77.4870000
 145.2969408  35.6169408  79.7390000 146.1719408  35.2819408  79.5430000
 144.9219408  35.8239408  78.8830000 130.5079408  37.1349408  80.9140000
 131.3479408  36.7929408  80.6060000 130.6289408  37.2549408  81.8560000
 125.4309408  38.9249408  73.3460000 124.5449408  38.8439408  73.6980000
 125.4069408  39.7229408  72.8170000 149.5329408  30.6999408  63.3760000
 150.1959408  30.7629408  62.6890000 149.1429408  29.8339408  63.2540000
 139.1209408  41.3209408  73.8360000 138.7309408  41.3989408  72.9650000
 138.7629408  42.0599408  74.3270000 143.4509408  46.6139408  77.9200000
 143.0099408  47.2459408  77.3520000 142.8429408  46.4799408  78.6470000
 121.2429408  55.3819408  71.0890000 121.8839408  54.7989408  70.6820000
 120.4409408  54.8619408  71.1370000 120.5589408  33.4369408  62.1060000
 120.9039408  33.9419408  61.3700000 119.6199408  33.3699408  61.9320000
 145.4529408  53.0009408  66.3470000 146.1639408  52.5919408  66.8410000
 145.8259408  53.1649408  65.4810000 139.8289408  42.1619408  64.8400000
 140.2879408  42.3219408  65.6640000 139.5549408  43.0299408  64.5450000
 145.5609408  41.1319408  75.4750000 145.1189408  40.5969408  76.1340000
 144.8589408  41.6419408  75.0700000 121.6959408  44.5629408  65.6540000
 121.0739408  44.5129408  64.9270000 121.7619408  43.6639408  65.9750000
 146.7429408  33.6139408  77.8620000 146.4659408  34.0829408  77.0750000
 146.0469408  32.9769408  78.0200000 141.6259408  49.4869408  61.2030000
 142.4039408  49.0829408  61.5860000 141.3859408  50.1789408  61.8190000
 149.2179408  53.7659408  65.8380000 149.3659408  54.3189408  65.0710000
 149.4309408  52.8809408  65.5410000 141.2669408  30.7559408  68.5830000
 141.3999408  31.0999408  69.4660000 140.5919408  30.0849408  68.6870000
 147.0209408  30.6149408  83.3560000 146.1119408  30.3729408  83.1770000
 147.4589408  29.7839408  83.5400000 147.0549408  50.3509408  73.5330000
 146.2059408  50.0659408  73.1960000 147.4329408  49.5649408  73.9270000
 143.3629408  35.0449408  71.8150000 143.7649408  35.8809408  71.5770000
 144.1039408  34.4649408  71.9930000 144.9759408  31.0289408  80.1130000
 144.6729408  31.3969408  79.2830000 144.4759408  31.4979408  80.7810000
 142.5319408  53.9129408  76.2690000 143.3199408  53.8259408  76.8050000
 142.8589408  54.0669408  75.3830000 146.3219408  37.4929408  83.9420000
 146.3019408  36.7529408  84.5480000 147.1049408  37.9849408  84.1900000
 120.1739408  41.8329408  71.6060000 120.4409408  41.6049408  72.4960000
 120.8999408  42.3529408  71.2630000 145.7369408  49.1459408  68.1800000
 144.8499408  49.1279408  68.5390000 146.1869408  48.4239408  68.6170000
 136.6539408  39.5689408  67.1000000 136.2859408  39.1019408  66.3490000
 137.5579408  39.2609408  67.1550000 138.3429408  55.7469408  66.0430000
 138.8659408  54.9999408  65.7510000 137.5969408  55.7659408  65.4440000
 124.7929408  55.8129408  65.2480000 124.3529408  56.6369408  65.4600000
 124.0799408  55.1949408  65.0880000 143.2419408  53.1659408  70.4920000
 142.9709408  53.7249408  69.7630000 142.5509408  52.5069408  70.5570000
 145.7379408  56.5139408  76.0000000 145.5399408  55.6189408  75.7260000
 144.8859408  56.8929408  76.2160000 120.0309408  36.3349408  67.2890000
 119.4529408  35.8939408  66.6650000 120.7089408  36.7369408  66.7450000
 125.4109408  31.6389408  74.1010000 126.3529408  31.5459408  73.9540000
 125.1199408  32.2449408  73.4200000 132.0409408  33.7889408  60.3090000
 131.4489408  34.5119408  60.1020000 132.7159408  33.8299408  59.6310000
 144.4599408  32.0869408  77.5660000 144.6979408  32.1839408  76.6440000
 143.9199408  31.2969408  77.5930000 128.5499408  34.3989408  79.4280000
 129.1569408  34.0959408  80.1040000 127.8149408  33.7869408  79.4750000
 141.2339408  31.7299408  71.0500000 141.0569408  31.7479408  71.9900000
 141.0979408  32.6329408  70.7630000 142.1169408  36.2239408  76.4610000
 141.5759408  36.8179408  76.9810000 141.6809408  36.1839408  75.6100000
 147.9949408  31.5439408  69.2960000 147.6689408  30.7739408  69.7610000
 147.5859408  31.4939408  68.4320000 124.1849408  49.2609408  75.5620000
 123.2749408  49.4589408  75.3410000 124.2369408  49.3929408  76.5080000
 141.5719408  46.0879408  79.4610000 141.2589408  46.5549408  80.2350000
 142.0279408  45.3219408  79.8100000 144.5889408  42.8039408  78.0590000
 145.3309408  42.2919408  77.7360000 144.9889408  43.5189408  78.5550000
 122.6959408  34.0899408  81.8710000 122.3059408  33.5869408  81.1560000
 122.9999408  34.8979408  81.4560000 149.8669408  52.4849408  83.7190000
 150.5199408  52.0109408  83.2050000 149.1229408  52.5889408  83.1250000
 142.9719408  59.7709408  66.6800000 142.3179408  60.1079408  67.2920000
 143.6439408  59.3789408  67.2390000 132.1399408  37.4559408  72.2220000
 133.0799408  37.4309408  72.0430000 131.9669408  36.6499408  72.7080000
 142.2569408  42.3619408  71.4830000 141.7519408  43.1539408  71.2990000
 142.2079408  41.8529408  70.6740000 147.9939408  38.9349408  78.7130000
 148.8849408  38.7869408  79.0320000 147.4419408  38.4079408  79.2910000
 122.6369408  38.9269408  68.6340000 123.0599408  39.1289408  69.4690000
 121.7709408  39.3279408  68.7010000 121.9669408  38.2519408  78.4270000
 122.8179408  38.6559408  78.5950000 121.4089408  38.5619408  79.1400000
 147.5039408  35.9579408  72.6760000 147.6349408  35.1329408  72.2080000
 147.4329408  36.6169408  71.9850000 126.0659408  33.5049408  63.3350000
 125.7129408  34.3689408  63.5490000 125.3759408  33.0859408  62.8200000
 140.1629408  33.2489408  67.1740000 140.7889408  32.6829408  67.6270000
 139.4289408  33.3299408  67.7820000 136.8479408  59.6619408  70.6200000
 136.3209408  59.0759408  71.1630000 136.2789408  59.8849408  69.8840000
 125.8869408  40.2809408  65.3640000 125.6359408  40.8369408  66.1020000
 125.8729408  40.8659408  64.6070000 142.0509408  57.8479408  81.3780000
 142.2919408  57.3129408  80.6220000 142.4079408  58.7149408  81.1820000
 146.0049408  58.4509408  80.5770000 145.3879408  57.8689408  80.1320000
 145.6789408  59.3319408  80.3920000 135.9519408  45.9449408  60.6750000
 135.0699408  45.6069408  60.8280000 136.3909408  45.2529408  60.1800000
 142.1649408  37.7679408  68.6350000 143.0789408  37.4839408  68.6030000
 142.1279408  38.5239408  68.0490000 144.3869408  40.8979408  67.2380000
 144.6949408  41.3449408  68.0260000 145.0989408  41.0059408  66.6070000
 140.4669408  57.5979408  76.5020000 140.0149408  58.4079408  76.7400000
 139.9129408  56.9009408  76.8520000 137.1799408  54.4859408  71.5940000
 137.1339408  54.0919408  70.7230000 137.8769408  55.1389408  71.5260000
 147.1109408  37.9229408  70.7590000 146.6699408  38.6599408  71.1820000
 147.2859408  38.2279408  69.8680000 144.4309408  38.2329408  60.1660000
 144.9999408  38.8329408  59.6840000 144.9499408  37.9689408  60.9260000
 147.6649408  47.8339408  80.4340000 147.0099408  47.9209408  81.1270000
 147.7929408  48.7259408  80.1110000 140.4459408  35.7249408  65.9510000
 140.6899408  34.9389408  66.4390000 141.2809408  36.0999408  65.6680000
 124.0989408  47.2339408  80.9040000 123.5579408  47.6299408  80.2210000
 124.7849408  47.8809408  81.0720000 143.0409408  55.6989408  67.7480000
 142.2169408  56.1149408  67.4950000 143.0589408  54.8799408  67.2530000
 135.0709408  33.1099408  71.9730000 135.9309408  32.7019408  71.8700000
 134.5769408  32.4959408  72.5170000 121.2549408  36.8109408  74.1630000
 120.3669408  36.7379408  74.5100000 121.5479408  37.6809408  74.4330000
 121.2039408  48.3319408  68.1590000 121.7869408  48.4599408  68.9080000
 120.4139408  47.9419408  68.5330000 130.8509408  48.0429408  80.5640000
 131.5169408  47.8769408  79.8970000 130.6929408  47.1879408  80.9640000
 145.3289408  43.5029408  71.5810000 145.0329408  44.2309408  72.1270000
 146.1189408  43.1829408  72.0170000 147.1119408  57.8559408  74.3000000
 146.6299408  57.3489408  74.9530000 148.0099408  57.8809408  74.6300000
 144.7879408  32.1149408  65.8990000 144.1839408  31.3719408  65.9120000
 145.6579408  31.7159408  65.9040000 139.4179408  45.1679408  76.0930000
 140.2329408  44.6729408  76.0060000 139.6999408  46.0539408  76.3210000
 147.7659408  43.5989408  63.8470000 147.7389408  43.8419408  64.7720000
 147.9009408  44.4269408  63.3850000 125.1689408  44.5189408  76.3780000
 125.8409408  44.4369408  77.0540000 124.4199408  44.9079408  76.8290000
 144.5049408  33.7859408  68.3370000 144.6659408  33.1259408  67.6630000
 145.3689408  33.9629408  68.7110000 147.8919408  45.9599408  61.8140000
 147.0629408  45.4949408  61.6950000 148.2699408  46.0039408  60.9360000
 141.4209408  35.9589408  73.7260000 140.7449408  36.4539408  73.2630000
 142.0389408  35.6999408  73.0420000 124.4059408  40.8699408  61.0480000
 123.6999408  41.4429408  61.3470000 125.1239408  41.0339408  61.6600000
 137.9489408  47.1749408  71.2960000 137.9059408  46.2389408  71.0990000
 138.8179408  47.2979408  71.6800000 145.4809408  41.9639408  69.4060000
 145.1199408  42.5119408  70.1030000 146.2799408  41.5939408  69.7810000
 147.2379408  34.9699408  68.0610000 147.3909408  35.8909408  68.2740000
 147.5609408  34.8749408  67.1650000 136.7859408  48.4209408  61.6810000
 136.7219408  47.5299408  61.3370000 137.4129408  48.8559408  61.1040000
 142.8489408  43.5719408  79.9600000 143.5609408  43.2709408  79.3950000
 142.1069408  43.0129408  79.7290000 143.2589408  30.4689408  74.2250000
 143.7039408  29.7619408  73.7580000 143.9489408  31.1049408  74.4120000
 128.5139408  48.9249408  64.6940000 128.4449408  47.9949408  64.9100000
 127.8739408  49.0569408  63.9950000 120.9149408  42.1979408  63.5130000
 120.7669408  42.8599408  62.8380000 120.2449408  41.5339408  63.3490000
 136.2619408  35.6629408  71.8050000 137.1559408  35.3529408  71.9450000
 135.7269408  34.8699408  71.8260000 145.2609408  32.5219408  75.1500000
 146.1599408  32.1979408  75.2140000 145.1129408  32.6349408  74.2110000
 146.0369408  39.7699408  72.4210000 146.3529408  39.1019408  73.0300000
 145.0999408  39.8379408  72.6050000 143.0209408  38.4339408  63.5050000
 143.2149408  39.3699408  63.4500000 143.4379408  38.1499408  64.3190000
 138.3969408  31.7669408  64.5070000 138.1719408  31.0319408  65.0770000
 139.3529408  31.8069408  64.5340000 149.4079408  50.4649408  72.4830000
 148.5159408  50.4729408  72.8300000 149.2959408  50.4509408  71.5330000
 139.9099408  38.3669408  70.0660000 139.9099408  39.2509408  69.6990000
 140.6139408  37.9149408  69.6030000 142.3429408  47.8229408  73.7280000
 142.4789408  48.5569408  74.3260000 141.4959408  47.9999408  73.3180000
 138.5539408  48.9259408  84.6820000 138.7939408  48.2999408  85.3660000
 139.3529408  49.4279408  84.5250000 120.9789408  41.7839408  66.4660000
 120.8059408  41.5689408  65.5490000 120.8379408  40.9619408  66.9360000
 138.5449408  36.2349408  68.9460000 138.6869408  36.3049408  68.0020000
 138.8589408  37.0669408  69.2990000 137.5829408  32.1169408  71.6990000
 137.5359408  31.9249408  72.6360000 137.4419408  31.2719408  71.2740000
 143.0879408  36.0449408  62.2860000 143.1179408  36.9629408  62.5550000
 142.5769408  36.0479408  61.4770000 139.4299408  59.0179408  60.8690000
 140.3869408  59.0099408  60.8630000 139.1899408  58.4979408  61.6360000
 149.4029408  51.3029408  76.8030000 149.1189408  52.1149408  76.3830000
 150.2919408  51.4879408  77.1050000 127.9229408  30.9289408  67.0610000
 128.3859408  31.4039408  67.7510000 127.6119408  31.6119408  66.4670000
 146.0629408  36.2019408  62.8730000 146.7759408  36.4759408  62.2960000
 145.4759408  35.7009408  62.3070000 145.4119408  50.8149408  61.5320000
 145.4999408  50.9999408  60.5970000 146.2239408  50.3649408  61.7650000
 148.3659408  35.4669408  79.3010000 148.8039408  35.9929408  78.6320000
 148.0599408  34.6899408  78.8330000 140.9419408  34.3839408  77.7550000
 140.5819408  33.9059408  77.0080000 141.5239408  35.0359408  77.3640000
 149.4049408  39.7769408  61.2160000 149.7829408  39.6169408  60.3520000
 148.8879408  38.9919408  61.4010000 141.4199408  43.2069408  84.2540000
 141.6209408  42.3409408  84.6100000 141.2789408  43.0559408  83.3200000
 149.1759408  40.3779408  82.4850000 148.2839408  40.5879408  82.2080000
 149.0939408  40.1619408  83.4140000 147.5159408  41.6489408  78.8270000
 147.5849408  40.6959408  78.7670000 147.6049408  41.8379408  79.7610000
 148.1189408  43.0759408  83.9840000 148.7619408  42.6759408  84.5710000
 147.4529408  43.4369408  84.5690000 141.7639408  43.3609408  62.3840000
 141.7739408  43.7069408  61.4920000 140.9559408  42.8499408  62.4340000
 148.0309408  55.7699408  60.2010000 147.6519408  56.3839408  59.5710000
 148.7909408  56.2309408  60.5560000 122.9169408  40.2559408  82.9200000
 122.3259408  40.8239408  82.4250000 123.4999408  40.8599408  83.3800000
 141.1939408  34.9999408  84.4080000 140.3499408  35.2639408  84.7730000
 141.2559408  34.0639408  84.5980000 148.7599408  58.1839408  63.0480000
 148.8759408  57.2849408  63.3560000 149.4779408  58.3219408  62.4310000
 122.6489408  37.0719408  83.3300000 122.9159408  37.8839408  82.8980000
 122.1039408  36.6239408  82.6820000 142.4329408  54.4709408  60.8190000
 141.6569408  54.3989408  61.3750000 142.5059408  53.6149408  60.3970000
 147.0089408  37.7539408  80.9100000 147.1639408  37.5669408  81.8360000
 146.1749408  37.3249408  80.7160000 139.5569408  49.2589408  64.7920000
 139.8279408  48.5009408  64.2750000 139.5719408  49.9889408  64.1730000
 146.9399408  40.5709408  65.5480000 147.2969408  41.4359408  65.7460000
 147.5429408  40.2049408  64.9000000 142.1869408  37.3489408  83.2340000
 142.6329408  37.2299408  82.3960000 141.9849408  36.4599408  83.5270000
 143.0549408  56.8219408  75.9560000 142.1179408  56.8199408  76.1500000
 143.1779408  56.0819408  75.3610000 146.0829408  44.9759408  82.9120000
 146.8299408  44.5689408  82.4730000 146.1679408  44.7089408  83.8270000
 121.7139408  34.7479408  64.2270000 121.3929408  34.3309408  63.4270000
 121.0859408  34.4889408  64.9010000 146.7119408  58.8939408  61.2240000
 147.5319408  58.5429408  61.5710000 146.3319408  59.3829408  61.9540000
 144.2559408  53.5429408  78.3680000 144.2759408  52.7569408  78.9150000
 145.1489408  53.6239408  78.0320000 144.1759408  48.5089408  61.7660000
 144.5339408  49.3739408  61.5650000 144.8279408  48.1069408  62.3410000
 145.2449408  45.1359408  79.2390000 144.6809408  45.3399408  79.9860000
 145.0279408  45.8009408  78.5860000 147.8889408  32.9389408  60.7890000
 147.1389408  32.3659408  60.9500000 147.5709408  33.8159408  61.0000000
 137.5889408  35.9449408  81.8650000 137.9269408  35.0509408  81.9150000
 138.2399408  36.4199408  81.3480000 140.0679408  36.6019408  80.6770000
 140.4109408  35.7399408  80.4420000 140.8469408  37.1369408  80.8290000
 149.4139408  33.1659408  76.0720000 149.2369408  32.3849408  76.5970000
 148.9069408  33.8589408  76.4960000 137.8799408  37.6249408  84.1220000
 137.7579408  36.6759408  84.0920000 137.0159408  37.9709408  84.3480000
 144.0009408  34.7069408  65.0710000 143.8849408  34.5229408  64.1390000
 144.2479408  33.8649408  65.4530000 148.6979408  34.9809408  83.9730000
 149.2289408  35.6649408  84.3820000 149.2709408  34.2149408  83.9480000
 129.8899408  41.8059408  77.1790000 130.2009408  41.2239408  77.8720000
 130.1229408  41.3559408  76.3660000 122.2539408  45.9619408  84.7120000
 121.4929408  45.4689408  84.4070000 123.0069408  45.4519408  84.4130000
 140.0029408  39.2039408  83.4090000 140.8009408  38.6759408  83.4560000
 139.3039408  38.6049408  83.6730000 143.6059408  42.7209408  74.1930000
 143.3069408  42.6279408  73.2890000 143.8659408  43.6389408  74.2670000
 143.0969408  37.0939408  80.7320000 143.5719408  37.7899408  80.2780000
 143.5829408  36.2959408  80.5220000 141.2829408  34.2129408  70.2370000
 142.1709408  34.4309408  70.5200000 140.9569408  35.0169408  69.8310000
 125.2779408  41.5559408  67.5480000 124.8449408  40.9229408  68.1220000
 125.5749408  42.2489408  68.1370000 126.0519408  36.0389408  72.9900000
 126.7619408  35.9259408  72.3580000 125.9799408  36.9859408  73.1040000
 146.9689408  56.1229408  82.1750000 147.8909408  56.2139408  82.4190000
 146.8059408  56.8519408  81.5770000 120.5089408  39.7659408  73.8980000
 119.8269408  39.7809408  74.5700000 120.2249408  39.0889408  73.2830000
 142.0069408  43.9469408  76.1180000 142.6479408  43.3789408  75.6900000
 142.4899408  44.3509408  76.8390000 123.1369408  45.9089408  77.4420000
 123.2879408  46.7359408  77.8990000 122.3239408  46.0479408  76.9560000
 144.1139408  33.7159408  81.1230000 144.5879408  34.4759408  80.7840000
 144.5419408  33.5189408  81.9560000 133.7419408  36.4529408  75.6390000
 134.2449408  36.8479408  74.9270000 133.4279408  37.1979408  76.1520000
 123.9139408  44.3159408  80.0960000 123.3239408  45.0459408  80.2810000
 123.8699408  44.2069408  79.1460000 139.3529408  39.0949408  79.9650000
 138.9699408  39.8979408  80.3180000 139.1119408  38.4159408  80.5960000
 137.2159408  32.2419408  74.2630000 137.4569408  31.6839408  75.0030000
 136.9959408  33.0849408  74.6600000 126.1759408  33.6459408  83.8610000
 127.0319408  33.4339408  84.2340000 125.6269408  33.8449408  84.6190000
 120.6509408  44.1239408  83.5250000 119.7119408  43.9479408  83.5810000
 120.9809408  43.4709408  82.9080000 122.0539408  42.5049408  81.6720000
 122.7779408  43.0489408  81.3630000 121.3189408  42.7389408  81.1060000
 147.4739408  38.2959408  67.3770000 147.0789408  39.0559408  66.9490000
 147.4529408  37.6089408  66.7110000 124.6389408  38.2059408  60.3610000
 124.5499408  39.1419408  60.5400000 125.5799408  38.0399408  60.4160000
 123.5789408  35.2939408  74.7230000 124.2869408  35.7469408  74.2640000
 122.8469408  35.9109408  74.7040000 134.3679408  38.5949408  80.4910000
 134.4269408  39.5469408  80.5680000 134.3979408  38.4279408  79.5490000
 122.4339408  59.4479408  81.3220000 121.7669408  58.7629408  81.3040000
 122.1439408  60.0829408  80.6670000 139.6399408  47.0629408  81.6660000
 140.2749408  47.2579408  82.3550000 139.4069408  47.9179408  81.3040000
 147.1349408  42.3819408  81.4320000 146.3539408  41.8949408  81.6950000
 147.7049408  42.3559408  82.2000000 121.7099408  34.5589408  77.3620000
 121.2679408  34.1129408  76.6390000 121.0809408  35.2169408  77.6580000
 123.7859408  33.1389408  65.5410000 124.7399408  33.2159408  65.5740000
 123.5029408  33.8839408  65.0110000 142.3099408  40.3559408  81.7640000
 141.7209408  41.1059408  81.6740000 141.7629408  39.6659408  82.1410000
 148.6129408  50.5529408  80.3810000 149.2029408  50.8629408  81.0670000
 148.5069408  51.3039408  79.7970000 138.5159408  55.7009408  60.7170000
 138.6129408  56.6029408  61.0230000 139.1969408  55.5999408  60.0510000
 144.3199408  45.3179408  73.4330000 143.7379408  46.0469408  73.2200000
 144.8819408  45.6559408  74.1310000 142.5469408  45.5769408  64.2880000
 141.8889408  46.0879408  63.8160000 142.4899408  44.7009408  63.9070000
 139.5539408  30.0589408  77.2370000 139.8519408  30.3489408  76.3750000
 138.6799408  30.4369408  77.3290000 144.5779408  56.1839408  79.7680000
 145.3119408  55.7339408  79.3490000 143.8019408  55.8429408  79.3220000
 141.9709408  59.7309408  64.2900000 141.4919408  60.5529408  64.3860000
 142.2929408  59.5359408  65.1700000 139.7779408  53.9979408  73.5600000
 140.2779408  54.1409408  72.7560000 140.3799408  53.5269408  74.1360000
 136.2369408  32.5929408  67.0360000 136.4979408  31.7169408  66.7530000
 137.0569408  33.0199408  67.2820000 137.8549408  33.6489408  68.8230000
 138.0219408  34.5789408  68.9790000 137.6949408  33.2839408  69.6930000
 140.3289408  54.1079408  62.8240000 139.6049408  54.5969408  62.4350000
 140.2499408  54.2699408  63.7640000 141.6989408  30.0119408  79.4060000
 142.3109408  29.7979408  78.7010000 140.9559408  30.4209408  78.9620000
 147.1489408  51.4149408  68.1260000 147.0169408  51.9989408  68.8730000
 146.3659408  50.8649408  68.1090000 141.1139408  32.1109408  64.7390000
 141.1109408  32.6599408  65.5240000 141.5609408  32.6399408  64.0780000
 142.0079408  40.1399408  76.2200000 141.9829408  40.3189408  75.2790000
 142.8879408  39.7949408  76.3750000 136.6089408  48.0909408  73.3550000
 136.7289408  47.5009408  72.6110000 137.4469408  48.5439408  73.4390000
 147.8639408  47.4319408  69.3610000 147.7469408  47.2979408  70.3010000
 148.3079408  48.2779408  69.2930000 121.0329408  55.6039408  73.9710000
 120.2089408  55.2399408  74.2930000 121.2309408  55.0919408  73.1870000
 121.9339408  59.6879408  78.6420000 122.2469408  58.7839408  78.6550000
 121.5109408  59.7829408  77.7880000 121.1559408  48.4609408  80.0400000
 120.2709408  48.7809408  79.8660000 121.0349408  47.5459408  80.2950000
 122.0799408  58.3339408  63.5080000 121.6479408  58.7749408  62.7770000
 122.4669408  59.0439408  64.0210000 137.4589408  49.6149408  66.9330000
 136.5709408  49.2699408  67.0270000 137.7209408  49.3639408  66.0470000
 146.6749408  47.5639408  73.5590000 146.2789408  47.7839408  74.4030000
 146.8119408  46.6169408  73.5990000 139.9319408  53.5469408  65.4520000
 139.4589408  52.7149408  65.4690000 140.8459408  53.3059408  65.6030000
 143.0439408  51.6259408  73.4910000 142.5689408  51.6099408  72.6600000
 143.9519408  51.4399408  73.2520000 141.5259408  57.0239408  63.9340000
 141.8329408  56.7029408  63.0860000 141.8009408  57.9409408  63.9570000
 142.5659408  53.1829408  66.2490000 142.5139408  52.3989408  66.7960000
 143.4839408  53.2299408  65.9820000 122.7359408  53.2419408  81.7040000
 122.8889408  53.6109408  80.8350000 122.5469408  53.9999408  82.2570000
 145.2289408  33.2469408  72.4100000 144.8559408  32.6399408  71.7710000
 146.0849408  33.4789408  72.0500000 123.0529408  56.7679408  75.5720000
 122.4119408  56.2939408  75.0430000 123.1159408  57.6289408  75.1590000
 144.1119408  51.8259408  63.7350000 144.7569408  52.4489408  64.0690000
 144.4369408  51.5849408  62.8680000 145.3229408  46.5199408  63.7300000
 145.4299408  45.8639408  63.0410000 144.4889408  46.2979408  64.1450000
 145.6729408  50.8899408  83.2500000 145.9379408  51.6929408  82.8020000
 145.0279408  50.4909408  82.6670000 148.0719408  45.0429408  74.1250000
 148.3279408  44.1539408  73.8810000 148.7059408  45.6059408  73.6790000
 141.4969408  47.6769408  68.9910000 140.6869408  47.9649408  69.4120000
 141.2069408  47.1699408  68.2330000 141.3089408  51.2979408  70.9070000
 140.3719408  51.3809408  71.0840000 141.3559408  50.9219408  70.0280000
 142.7679408  49.3119408  77.3790000 142.3009408  50.0629408  77.0110000
 143.4259408  49.6989408  77.9570000 139.7129408  51.5399408  67.5910000
 139.1179408  50.8719408  67.2500000 140.5109408  51.0599408  67.8100000
 143.7039408  47.7479408  70.5130000 144.1529408  46.9339408  70.2860000
 142.9529408  47.7799408  69.9200000 147.4709408  55.8359408  66.5070000
 147.7579408  54.9329408  66.6370000 147.3959408  55.9299408  65.5570000
 147.1539408  55.2229408  78.8610000 147.2309408  54.5909408  78.1470000
 147.9429408  55.7599408  78.7930000 148.9979408  45.2499408  77.3840000
 148.6679408  45.0439408  78.2580000 148.5579408  44.6249408  76.8080000
 137.0249408  52.7099408  77.6690000 136.8809408  52.0149408  77.0260000
 136.7759408  53.5139408  77.2140000 145.5159408  32.1409408  62.2740000
 144.6969408  32.6339408  62.2290000 145.2789408  31.3189408  62.7030000
 147.8379408  46.4779408  64.9610000 147.1649408  46.4449408  64.2810000
 148.2269408  47.3489408  64.8720000 138.1619408  41.4479408  78.1310000
 138.1129408  41.6889408  79.0560000 139.0279408  41.7449408  77.8520000
 131.7949408  34.1809408  75.4660000 131.0579408  34.3869408  76.0420000
 132.4969408  34.7619408  75.7580000 144.6279408  59.7129408  63.2650000
 143.6809408  59.5999408  63.3410000 144.9819408  59.3039408  64.0550000
 144.1549408  58.4689408  68.6710000 144.9869408  57.9959408  68.6860000
 143.5239408  57.8559408  69.0480000 147.6299408  58.3429408  67.5860000
 147.5669408  57.3909408  67.5050000 147.5549408  58.5079408  68.5260000
 146.7179408  53.2369408  77.1170000 147.0469408  53.5299408  76.2670000
 146.4409408  52.3329408  76.9690000 148.6429408  53.4169408  62.1320000
 149.5469408  53.7219408  62.2000000 148.2299408  54.0239408  61.5180000
 138.1019408  59.3339408  73.8490000 138.8249408  59.9569408  73.9170000
 138.5209408  58.5029408  73.6270000 120.8829408  45.8929408  80.9960000
 121.0199408  45.6469408  81.9110000 120.0429408  45.4959408  80.7640000
 149.7119408  57.0349408  78.1520000 149.5509408  57.4989408  77.3300000
 149.2639408  57.5589408  78.8150000 127.1339408  53.6299408  77.5170000
 126.9599408  54.4419408  77.0430000 127.4829408  53.0339408  76.8540000
 124.8129408  50.6049408  80.3340000 124.8989408  51.5329408  80.5520000
 124.8869408  50.1529408  81.1740000 145.3029408  56.0099408  71.7730000
 145.0519408  55.5969408  70.9470000 144.6769408  56.7259408  71.8830000
 135.4609408  53.4619408  63.0360000 135.9439408  53.2799408  62.2300000
 135.3659408  52.6069408  63.4560000 133.5109408  57.9189408  75.3630000
 134.4469408  57.8499408  75.5500000 133.2639408  57.0499408  75.0470000
 145.1669408  55.1589408  61.8110000 144.2559408  54.8679408  61.8270000
 145.3879408  55.2049408  60.8810000 141.1539408  57.1659408  66.5480000
 141.4189408  56.9389408  65.6570000 141.5359408  58.0299408  66.7000000
 136.0469408  34.5639408  75.7710000 136.0809408  34.5099408  76.7260000
 135.4529408  35.2939408  75.5940000 122.8799408  57.4629408  72.2670000
 122.0239408  57.0379408  72.2150000 123.2679408  57.3299408  71.4030000
 148.6919408  49.2009408  63.8620000 149.5599408  48.8229408  63.7170000
 148.1619408  48.8679408  63.1380000 147.3199408  48.8899408  61.5420000
 147.8129408  49.1749408  60.7720000 147.3469408  47.9339408  61.5040000
 120.1709408  55.8719408  63.6420000 120.6029408  55.3299408  62.9810000
 120.8439408  56.4929408  63.9200000 141.9069408  50.2649408  68.2860000
 141.7919408  49.3209408  68.3890000 142.4119408  50.3589408  67.4790000
 140.8209408  55.7819408  71.5460000 140.6039408  55.9449408  70.6280000
 140.7959408  56.6459408  71.9560000 147.3569408  31.1799408  66.2670000
 147.6309408  31.6629408  65.4870000 148.0139408  30.4909408  66.3660000
 138.4929408  50.8929408  71.3400000 138.2899408  50.2629408  70.6490000
 137.8709408  51.6069408  71.2050000 147.5929408  58.9229408  70.4380000
 147.4519408  59.3709408  71.2720000 148.5019408  58.6269408  70.4740000
 129.8979408  58.3239408  77.5680000 130.5479408  57.6229408  77.5210000
 129.0609408  57.8869408  77.4100000 120.6229408  55.0849408  79.8260000
 121.5509408  54.8679408  79.9130000 120.5909408  55.7159408  79.1080000
 149.5049408  39.6089408  63.9390000 149.2369408  39.4409408  63.0360000
 150.3389408  39.1489408  64.0320000 144.9399408  58.5519408  72.8940000
 145.6679408  58.0659408  73.2810000 145.3499408  59.3119408  72.4820000
 146.2609408  50.5759408  76.5330000 145.9599408  49.7359408  76.1870000
 147.1519408  50.4039408  76.8380000 120.9209408  59.9589408  69.9480000
 121.4189408  59.3979408  69.3520000 120.0779408  60.0829408  69.5120000
 120.1289408  30.2789408  66.1440000 120.1339408  30.2069408  65.1890000
 120.6739408  29.5509408  66.4420000 140.1059408  56.3139408  68.9570000
 140.3829408  56.3689408  68.0430000 139.8789408  57.2129408  69.1940000
 137.8029408  31.4979408  62.0150000 137.8179408  31.3079408  62.9530000
 137.9959408  30.6579408  61.5970000 141.2849408  51.4409408  63.2030000
 142.1909408  51.6019408  63.4660000 140.9289408  52.3109408  63.0260000
 144.8339408  48.1349408  75.5300000 145.1179408  47.2749408  75.8380000
 144.2629408  48.4619408  76.2250000 145.9399408  53.0769408  70.1740000
 145.0409408  52.8989408  70.4490000 145.8779408  53.8789408  69.6550000
 120.5509408  53.0329408  68.3860000 120.1859408  53.4379408  67.6000000
 119.8569408  53.1109408  69.0410000 139.0939408  55.2559408  77.6310000
 138.8449408  55.5209408  78.5160000 138.5189408  54.5169408  77.4310000
 144.6889408  56.4959408  83.9890000 145.4609408  56.4079408  83.4300000
 144.0209408  55.9579408  83.5630000 139.7889408  57.3129408  83.2930000
 140.5389408  57.1429408  82.7230000 139.6029408  58.2449408  83.1720000
 146.0789408  58.6559408  65.3270000 146.5179408  58.9459408  66.1270000
 146.5309408  57.8469408  65.0860000 141.9989408  57.5469408  61.0180000
 142.9239408  57.6119408  60.7810000 141.7279408  56.6889408  60.6910000
 137.6129408  50.7449408  63.2240000 137.4149408  49.8939408  62.8320000
 137.7729408  51.3209408  62.4770000 148.7029408  53.2359408  80.3090000
 149.5569408  53.6369408  80.1500000 148.0819408  53.8059408  79.8540000
 139.1839408  52.3919408  79.3730000 138.8759408  52.0519408  80.2130000
 138.3959408  52.4469408  78.8330000 142.4529408  52.8319408  84.3870000
 143.2899408  53.2969408  84.4070000 141.9209408  53.3219408  83.7600000
 149.3329408  50.1069408  69.6110000 150.1389408  50.5079408  69.2850000
 148.7129408  50.1949408  68.8870000 149.7389408  31.2499408  82.7270000
 149.9719408  30.5979408  82.0660000 148.7969408  31.1349408  82.8560000
 146.4519408  48.2429408  83.9800000 146.5979408  49.0739408  83.5290000
 145.5169408  48.0689408  83.8690000 122.8429408  55.7119408  83.1490000
 123.7689408  55.4969408  83.0340000 122.8479408  56.5679408  83.5780000
 148.0669408  45.0089408  80.1910000 148.0739408  45.9439408  79.9830000
 147.1889408  44.8459408  80.5340000 149.9059408  58.0329408  81.8660000
 149.3759408  58.3819408  82.5830000 150.0419408  57.1129408  82.0930000
 123.7959408  32.6399408  61.5360000 123.1589408  33.0979408  60.9870000
 123.2689408  32.0539408  62.0780000 144.2699408  59.2149408  84.6630000
 144.2869408  58.9489408  85.5820000 144.4699408  58.4149408  84.1780000
 140.7379408  33.9019408  80.2470000 140.8629408  33.9519408  79.3000000
 141.6089408  34.0529408  80.6130000 149.0199408  58.8129408  84.3330000
 149.8619408  59.1639408  84.6250000 148.8459408  58.0819408  84.9260000
 146.1579408  56.4039408  63.9090000 145.6669408  57.2129408  64.0520000
 145.8099408  56.0549408  63.0890000 137.0399408  58.4119408  84.8180000
 137.5809408  58.5059408  85.6020000 137.1749408  57.5059408  84.5410000
 143.6199408  54.9529408  82.0760000 142.8519408  54.5989408  81.6270000
 144.1499408  55.3379408  81.3780000 141.2529408  53.5169408  80.7880000
 140.5179408  53.0819408  80.3570000 140.8559408  53.9929408  81.5170000
 123.1729408  59.6979408  83.8650000 122.8949408  59.4999408  82.9710000
 123.6089408  60.5479408  83.7990000 144.4219408  39.4159408  80.1160000
 145.2529408  39.6309408  80.5400000 143.7539408  39.7569408  80.7110000
 122.7039408  51.1609408  60.5350000 121.8629408  51.6189408  60.5440000
 122.8899408  51.0209408  59.6060000 138.5739408  56.5729408  79.9790000
 139.3969408  57.0059408  80.2050000 137.9349408  56.9379408  80.5900000
 143.9579408  31.6669408  83.3620000 143.0839408  31.9459408  83.6370000
 144.0009408  30.7409408  83.6010000 143.5929408  50.4459408  66.1030000
 144.4549408  50.0469408  66.2220000 143.6239408  50.8299408  65.2270000
 141.0189408  51.9559408  77.3460000 140.6409408  52.0609408  78.2200000
 141.4569408  52.7889408  77.1720000 149.3579408  36.4659408  81.7420000
 148.9689408  36.1709408  80.9190000 149.0259408  35.8529408  82.3980000
 125.0389408  50.2599408  83.3180000 125.4329408  50.8059408  83.9980000
 124.2329408  49.9279408  83.7140000 142.3159408  30.6029408  60.0200000
 142.8489408  30.3259408  60.7650000 142.9519408  30.8169408  59.3370000
 122.0639408  32.4419408  79.6400000 122.0359408  33.1009408  78.9460000
 121.3919408  31.8059408  79.3950000 136.0279408  59.2599408  78.5900000
 135.0909408  59.1729408  78.4130000 136.1359408  58.9249408  79.4800000
 140.3859408  54.2079408  83.2040000 140.0829408  55.1069408  83.3300000
 139.8389408  53.6859408  83.7910000 120.8689408  36.2169408  60.9050000
 121.1979408  36.6709408  60.1290000 121.6129408  36.1979408  61.5060000
 130.0009408  56.2329408  81.9690000 130.8279408  55.7619408  82.0740000
 130.2609408  57.1449408  81.8330000 133.1139408  59.2469408  78.1040000
 133.4209408  58.6579408  77.4150000 132.3449408  59.6749408  77.7280000
 124.1209408  73.6749408  13.7610000 124.0209408  74.4239408  14.3480000
 124.6659408  73.0579408  14.2490000 139.4019408  77.0039408   3.4620000
 139.3069408  76.1259408   3.8320000 138.6369408  77.1089408   2.8970000
 141.2879408  65.2629408  29.9310000 140.5409408  64.9539408  30.4440000
 140.9199408  65.9259408  29.3470000 126.9639408  87.2739408   4.1330000
 126.2589408  86.7169408   4.4630000 126.9889408  88.0129408   4.7410000
 141.1249408  61.1489408  21.7350000 140.9649408  60.2999408  21.3230000
 141.6349408  61.6379408  21.0890000 126.7109408  78.7099408  21.4700000
 126.3839408  79.3649408  22.0880000 127.6529408  78.8729408  21.4250000
 131.8849408  71.9679408  12.0810000 131.2899408  71.2449408  12.2800000
 132.7569408  71.5759408  12.1090000 125.8789408  66.9689408   8.7010000
 125.4139408  66.1719408   8.4480000 125.9029408  67.4959408   7.9020000
 135.1049408  77.8279408  15.6050000 134.2939408  77.6459408  15.1300000
 135.7899408  77.7719408  14.9380000 120.6359408  74.0729408   8.5360000
 119.8129408  74.3929408   8.1640000 120.9089408  73.3719408   7.9450000
 138.8559408  78.6129408   9.2840000 138.4689408  78.1719408  10.0410000
 138.1489408  79.1559408   8.9360000 129.0639408  68.6819408  17.8260000
 128.4579408  68.2489408  18.4280000 129.3939408  67.9759408  17.2700000
 131.2259408  71.3479408   5.7040000 130.6419408  71.7979408   6.3140000
 131.6789408  70.6969408   6.2400000 137.4669408  75.2269408  17.9080000
 137.9479408  75.1439408  18.7320000 138.1319408  75.1079408  17.2300000
 142.0799408  69.5039408   6.3360000 141.9909408  69.7379408   5.4120000
 142.7389408  70.1109408   6.6740000 125.6149408  73.6859408   8.9500000
 125.7649408  73.7169408   9.8950000 124.7539408  74.0859408   8.8300000
 149.3079408  78.9599408  15.2020000 149.6479408  79.5329408  15.8900000
 149.8979408  79.0979408  14.4610000 132.9309408  85.5519408  14.1980000
 133.8639408  85.3599408  14.1090000 132.5239408  85.1209408  13.4470000
 148.0369408  65.5629408   5.5490000 147.0969408  65.6829408   5.4130000
 148.2159408  64.6789408   5.2300000 138.3629408  81.3589408   0.6810000
 137.7089408  82.0489408   0.5670000 138.2789408  80.8169408  -0.1030000
 130.6849408  75.9839408   6.6650000 131.1339408  76.8249408   6.7490000
 129.8769408  76.0929408   7.1670000 138.4319408  64.8569408  25.0460000
 138.1149408  64.5139408  25.8810000 138.3719408  64.1159408  24.4430000
 148.7999408  69.9389408  15.7730000 147.8609408  69.9999408  15.5990000
 148.8569408  69.5959408  16.6650000 122.3889408  80.7699408   3.8460000
 123.1819408  81.3059408   3.8470000 122.6729408  79.9199408   4.1820000
 137.9779408  74.4559408  10.6650000 137.2519408  74.3639408  10.0480000
 137.7039408  73.9559408  11.4340000 133.5299408  74.6779408   0.5350000
 132.9009408  73.9769408   0.7060000 133.0779408  75.2629408  -0.0730000
 136.9329408  82.0279408  13.3670000 137.2779408  82.9039408  13.1980000
 137.6629408  81.4399408  13.1730000 131.7599408  83.1179408   8.5430000
 131.6899408  83.8819408   7.9720000 132.0759408  82.4179408   7.9710000
 134.5309408  86.0489408   1.8910000 135.1549408  86.0429408   1.1650000
 134.9719408  85.5639408   2.5890000 121.5889408  67.8679408   5.1380000
 121.9129408  67.0799408   4.7030000 122.3749408  68.2939408   5.4810000
 124.3779408  61.6949408  16.6380000 123.4469408  61.8319408  16.4640000
 124.7679408  61.5709408  15.7730000 131.0189408  62.1809408  18.1460000
 130.7569408  63.1019408  18.1390000 131.6919408  62.1279408  18.8240000
 135.1549408  60.6799408   8.8720000 134.7649408  61.4279408   8.4200000
 135.0899408  59.9599408   8.2450000 135.4189408  74.0349408  13.0950000
 134.8099408  73.9809408  13.8320000 134.8679408  74.2559408  12.3440000
 126.8749408  86.9259408   9.7580000 127.0919408  87.8089408  10.0560000
 127.0169408  86.9499408   8.8120000 132.2769408  69.0759408  26.9600000
 131.8759408  69.8269408  26.5240000 132.9859408  69.4519408  27.4820000
 148.5349408  75.5709408   7.6430000 148.4489408  76.1489408   6.8850000
 148.1879408  76.0809408   8.3750000 128.3539408  66.3839408   3.5020000
 129.0179408  66.9059408   3.0520000 127.9879408  66.9769408   4.1590000
 144.3849408  69.4109408  17.3650000 144.7209408  68.5179408  17.2950000
 144.2909408  69.5589408  18.3060000 127.7939408  73.7699408   7.0920000
 127.1589408  73.5089408   7.7590000 128.3649408  73.0079408   6.9930000
 129.0859408  62.8069408  12.3010000 129.2659408  63.2629408  11.4790000
 129.7729408  63.1059408  12.8980000 135.8509408  73.9929408   9.0110000
 135.1649408  74.5659408   8.6690000 135.4019408  73.1709408   9.2080000
 127.6489408  77.3009408  12.5020000 127.1329408  77.8939408  13.0490000
 127.6139408  76.4609408  12.9600000 142.4549408  63.6049408   2.6640000
 141.6819408  63.5749408   2.1000000 142.7979408  64.4919408   2.5530000
 141.2289408  80.5009408  14.9470000 140.8759408  81.0379408  15.6570000
 141.9479408  81.0209408  14.5870000 127.2079408  68.2029408  29.8520000
 127.3599408  68.7419408  30.6280000 128.0649408  68.1409408  29.4310000
 131.1919408  86.2969408   1.5580000 131.2509408  87.2469408   1.6600000
 131.6389408  85.9449408   2.3270000 124.6869408  63.6109408  12.3470000
 123.8339408  63.9499408  12.0730000 125.2309408  64.3909408  12.4540000
 131.3659408  80.8169408  12.9800000 131.3449408  81.5859408  12.4090000
 132.2869408  80.5579408  12.9990000 135.5709408  64.5019408  23.2080000
 136.1229408  65.1429408  22.7600000 135.2669408  63.9189408  22.5130000
 134.5329408  79.5259408   7.8070000 134.0209408  78.9609408   8.3850000
 133.9069408  80.1799408   7.4950000 124.9169408  74.0799408   6.0540000
 125.2429408  73.2809408   6.4690000 124.3959408  74.5079408   6.7330000
 131.9419408  64.9309408  18.4310000 132.8109408  65.3169408  18.3240000
 131.7659408  64.9919408  19.3700000 122.9999408  83.7209408   4.9930000
 122.5599408  83.1309408   5.6050000 123.7909408  83.2499408   4.7310000
 129.3909408  65.9979408  13.5600000 128.4679408  65.8209408  13.7410000
 129.5449408  65.6099408  12.6990000 126.4589408  79.0469408  14.2110000
 125.7969408  78.9559408  14.8960000 127.0899408  79.6709408  14.5690000
 132.7269408  64.7419408  13.0350000 133.5559408  64.2759408  12.9230000
 132.3699408  64.4009408  13.8560000 130.9189408  75.5149408  11.9010000
 130.0709408  75.1079408  11.7250000 130.7289408  76.4519408  11.9560000
 131.2779408  68.6519408   9.3500000 131.3409408  67.9429408   9.9910000
 130.6729408  69.2789408   9.7440000 127.3769408  88.8119408   1.6800000
 126.6809408  88.2869408   1.2850000 127.2869408  88.6599408   2.6210000
 135.6899408  78.6069408   4.5490000 135.8669408  78.6029408   3.6090000
 136.2479408  77.9129408   4.9010000 126.0069408  60.8799408   4.4630000
 126.8559408  60.4709408   4.2940000 126.1609408  61.8149408   4.3310000
 129.4119408  68.7209408   6.5640000 129.9009408  68.4549408   7.3430000
 130.0189408  69.2819408   6.0810000 130.9679408  78.3959408  15.9660000
 131.6029408  77.8829408  15.4660000 130.1389408  77.9329408  15.8490000
 129.0729408  70.0809408   9.9790000 129.3089408  70.3209408  10.8750000
 128.1399408  69.8699408  10.0250000 128.6629408  83.0849408   5.7270000
 129.1639408  82.7029408   6.4480000 129.3049408  83.2099408   5.0280000
 132.1909408  63.0269408   6.6490000 132.5829408  63.5069408   7.3790000
 132.8259408  62.3399408   6.4440000 122.7639408  70.3209408  15.9390000
 122.1979408  70.7929408  15.3280000 122.1579408  69.8679408  16.5260000
 123.7929408  65.9289408  18.5460000 124.5359408  65.3939408  18.2680000
 123.0419408  65.5539408  18.0850000 127.2649408  65.4869408  10.7700000
 126.6499408  66.0649408  10.3180000 127.6409408  64.9459408  10.0760000
 124.4899408  64.3149408   8.6110000 123.8189408  63.6769408   8.8510000
 124.7519408  64.0669408   7.7250000 138.2059408  71.1969408  11.0920000
 138.7899408  71.1579408  10.3350000 137.3289408  71.0939408  10.7250000
 132.6159408  62.7419408   2.6460000 132.2479408  63.1119408   1.8440000
 133.2749408  63.3789408   2.9240000 143.6789408  79.2509408  25.6230000
 142.9449408  78.9459408  26.1550000 144.0749408  79.9529408  26.1400000
 123.9959408  70.0319408  19.2360000 124.7059408  69.4889408  18.8920000
 124.1359408  70.8909408  18.8370000 133.6049408  69.6929408   3.1680000
 134.0819408  68.9459408   3.5280000 134.2209408  70.4239408   3.2310000
 130.6809408  71.2849408   0.4750000 130.9629408  71.9649408  -0.1370000
 130.5939408  71.7389408   1.3140000 126.1979408  88.7859408   7.3920000
 125.6229408  89.3219408   7.9370000 126.9389408  89.3569408   7.1890000
 135.6389408  66.6119408   8.9870000 135.6199408  66.6119408   9.9440000
 136.5409408  66.8459408   8.7660000 136.1629408  80.3279408   9.8410000
 135.8969408  80.1039408   8.9500000 135.7949408  79.6309408  10.3840000
 138.8369408  79.6889408  13.6890000 139.6529408  79.8079408  14.1740000
 139.0429408  79.9709408  12.7980000 127.3569408  74.9479408  14.1060000
 126.7409408  74.6609408  14.7800000 127.7119408  74.1349408  13.7450000
 142.1589408  71.9809408   8.6940000 142.2029408  72.9319408   8.6020000
 142.8179408  71.6489408   8.0840000 121.5759408  61.8369408  12.3790000
 121.6699408  61.3979408  11.5340000 121.7809408  62.7539408  12.1980000
 129.7979408  73.5629408  20.7020000 129.9119408  72.6129408  20.6900000
 130.2249408  73.8659408  19.9000000 132.6309408  73.1459408  14.3340000
 132.2629408  73.3379408  13.4710000 132.9819408  72.2589408  14.2530000
 130.1429408  68.5439408   2.9460000 130.7999408  68.6049408   2.2530000
 130.5939408  68.8529408   3.7320000 124.7069408  75.4199408  23.1280000
 124.5639408  75.8999408  22.3120000 124.9709408  76.0909408  23.7570000
 122.9149408  76.4549408  14.3630000 123.5279408  77.1049408  14.7050000
 122.2449408  76.3749408  15.0420000 129.9729408  61.6209408   9.1660000
 130.8859408  61.7839408   8.9290000 130.0159408  61.2549408  10.0490000
 132.5159408  69.3919408   7.0440000 132.9239408  68.9559408   6.2950000
 132.6179408  68.7729408   7.7670000 140.6819408  74.5549408  10.8580000
 140.4699408  74.9719408  11.6930000 139.8309408  74.3559408  10.4670000
 125.0659408  72.1979408  18.1450000 125.8319408  71.7159408  17.8330000
 124.6889408  72.5859408  17.3550000 124.4699408  66.9909408  21.0950000
 124.3759408  66.7169408  20.1820000 124.4599408  67.9469408  21.0610000
 136.7989408  68.8369408  21.9130000 136.1259408  68.2629408  21.5470000
 137.3839408  68.2479408  22.3890000 137.3339408  61.3149408  17.3720000
 137.1459408  62.1649408  17.7700000 136.5919408  60.7639408  17.6200000
 124.3569408  84.6489408  13.1330000 125.1819408  85.0809408  12.9100000
 123.8739408  85.2999408  13.6410000 126.0859408  74.8579408  11.4430000
 125.4669408  75.3769408  10.9300000 125.9959408  75.1919408  12.3360000
 133.4409408  76.1729408   8.5040000 133.3789408  75.9409408   7.5780000
 132.7799408  76.8539408   8.6260000 128.5019408  64.1379408   8.6120000
 128.8629408  64.4539408   7.7840000 128.9809408  63.3279408   8.7890000
 129.2219408  89.9579408  19.5540000 129.1209408  89.3189408  18.8490000
 129.7729408  90.6449408  19.1780000 125.8979408  86.1729408  15.7840000
 124.9769408  86.4009408  15.6590000 126.2559408  86.1269408  14.8980000
 124.1719408  68.0399408   6.5580000 123.5999408  68.3309408   7.2680000
 124.3229408  68.8259408   6.0330000 140.9309408  68.1219408  17.8530000
 140.4899408  68.4399408  18.6410000 141.2959408  68.9089408  17.4480000
 123.5469408  89.1949408  14.3880000 123.4529408  88.7309408  13.5560000
 124.0779408  89.9629408  14.1760000 127.6459408  75.5889408   0.5610000
 128.1379408  74.9059408   1.0160000 128.1499408  76.3889408   0.7110000
 129.7719408  62.8839408   5.6410000 130.6209408  62.7349408   6.0590000
 129.7999408  62.3549408   4.8440000 129.0259408  76.3989408  15.6100000
 128.7289408  76.0099408  16.4320000 128.4029408  76.0809408  14.9560000
 144.9449408  70.7089408  22.4340000 144.4059408  70.1399408  22.9830000
 144.3479408  71.3989408  22.1430000 132.9919408  66.0789408  20.9050000
 133.2669408  66.9929408  20.8340000 133.4549408  65.7489408  21.6750000
 139.7759408  77.0209408   6.7930000 139.6259408  77.7959408   6.2530000
 139.1299408  77.0889408   7.4960000 144.9269408  75.3199408   9.5870000
 145.3159408  74.5869408  10.0650000 145.3279408  75.2809408   8.7190000
 125.7419408  71.5499408  12.2860000 125.5099408  71.7689408  13.1890000
 126.5849408  71.9799408  12.1450000 149.0709408  62.3679408  13.5800000
 149.1899408  62.7229408  14.4610000 149.9599408  62.2269408  13.2550000
 135.3469408  67.8619408  13.5700000 135.5059408  67.1419408  12.9600000
 136.2199408  68.1279408  13.8590000 133.9419408  87.7469408  11.2050000
 133.6119408  87.6369408  12.0970000 133.2129408  88.1429408  10.7270000
 122.4759408  73.4329408  11.5170000 122.9669408  73.3179408  12.3310000
 122.3929408  74.3819408  11.4200000 124.0809408  70.9719408  10.1910000
 123.3579408  71.5829408  10.3280000 124.6869408  71.1519408  10.9110000
 122.4699408  62.2689408   9.4860000 121.9209408  63.0069408   9.2190000
 121.8819408  61.5139408   9.4670000 123.0199408  76.0899408  11.5960000
 122.9749408  76.1599408  12.5500000 123.1089408  76.9939408  11.2930000
 132.5739408  74.1909408  16.7410000 132.6879408  73.7449408  15.9010000
 133.3929408  74.6689408  16.8720000 129.4949408  75.9309408   3.8740000
 129.7659408  75.7989408   4.7830000 129.9059408  76.7569408   3.6190000
 128.0449408  78.2839408  17.2700000 127.8129408  77.5769408  17.8720000
 128.2419408  77.8409408  16.4450000 128.0199408  61.0509408  14.0630000
 128.1869408  61.8039408  13.4960000 128.5849408  61.1939408  14.8240000
 132.3299408  83.4389408   4.0320000 131.5709408  82.9229408   3.7610000
 133.0749408  83.0059408   3.6160000 123.8559408  88.2669408   6.1100000
 123.5329408  89.1219408   5.8250000 124.7399408  88.4389408   6.4320000
 122.1229408  82.1309408  17.8600000 122.8419408  81.8089408  17.3180000
 122.3069408  83.0629408  17.9750000 138.9909408  68.3469408   5.9690000
 139.9089408  68.3779408   6.2400000 138.8449408  67.4349408   5.7200000
 125.8029408  76.0779408   4.3120000 126.5949408  75.6419408   3.9980000
 125.6179408  75.6609408   5.1540000 135.6349408  71.6509408   3.7230000
 136.4549408  71.1739408   3.8460000 135.4639408  72.0589408   4.5730000
 133.6209408  75.0579408  11.2560000 132.8359408  75.3699408  11.7060000
 133.5009408  75.3309408  10.3470000 126.7349408  70.4089408  16.9120000
 127.6709408  70.2119408  16.8740000 126.3309408  69.5979408  17.2210000
 129.1019408  79.7299408  22.1000000 129.8669408  79.3959408  21.6300000
 129.3469408  80.6199408  22.3550000 128.8879408  80.4159408   1.5990000
 128.2829408  79.7779408   1.9770000 128.7719408  81.2019408   2.1330000
 133.4439408  60.5639408   5.1250000 134.2609408  60.5429408   5.6220000
 133.7179408  60.5099408   4.2090000 128.1309408  77.3219408   9.6840000
 128.1119408  78.2399408   9.4110000 127.9969408  77.3509408  10.6310000
 131.8609408  68.8709408   0.8180000 131.4729408  69.7019408   0.5460000
 132.8049408  69.0259408   0.7920000 134.0549408  80.7059408  19.8650000
 133.1819408  80.5199408  20.2090000 134.1139408  80.1809408  19.0660000
 128.7819408  74.8269408  10.5120000 127.8989408  74.6719408  10.8490000
 128.7299408  75.6859408  10.0920000 145.7759408  75.5769408  15.5950000
 146.5949408  75.4519408  15.1160000 145.8309408  74.9639408  16.3280000
 134.7319408  65.0299408   6.7360000 135.2879408  64.2539408   6.6670000
 135.2679408  65.6689408   7.2060000 134.8019408  75.4929408  16.8610000
 134.9129408  76.3009408  16.3600000 135.6729408  75.3059408  17.2110000
 147.4529408  72.4809408  12.6510000 146.9679408  71.6609408  12.7380000
 148.3159408  72.2169408  12.3320000 139.8039408  70.9529408   8.8190000
 140.7069408  71.2619408   8.7410000 139.2889408  71.5889408   8.3220000
 133.6759408  72.0399408   8.3110000 132.9579408  72.4469408   8.7970000
 133.3909408  71.1369408   8.1740000 124.4319408  59.9699408   9.1520000
 124.9539408  60.3289408   9.8690000 123.7079408  60.5879408   9.0490000
 123.1979408  75.2869408   7.9950000 122.5999408  75.4139408   7.2590000
 122.7259408  74.7069408   8.5910000 133.4919408  70.2479408  15.4210000
 134.1179408  70.9619408  15.5410000 134.0109408  69.5349408  15.0460000
 148.8019408  66.7519408  15.1170000 148.5949408  66.3399408  14.2790000
 147.9779408  67.1509408  15.3980000 126.3509408  72.5299408  20.8020000
 125.7639408  72.6359408  20.0530000 126.8079408  73.3679408  20.8690000
 122.1939408  62.4329408  15.0200000 121.9859408  62.0149408  14.1840000
 122.7589408  63.1699408  14.7850000 140.3539408  61.1919408  14.3940000
 141.2449408  61.0649408  14.0680000 140.3279408  62.1089408  14.6690000
 132.9529408  78.1909408   4.7110000 132.8259408  78.4779408   5.6150000
 133.8859408  78.3269408   4.5450000 131.2079408  73.2309408   9.6310000
 131.4929408  73.1859408  10.5430000 130.4689408  73.8389408   9.6400000
 125.2889408  76.5969408   1.2440000 126.1979408  76.4009408   1.4730000
 125.0949408  76.0109408   0.5130000 125.9609408  61.2959408  10.8390000
 126.7089408  61.8909408  10.8830000 125.2019408  61.8499408  11.0230000
 134.0369408  69.3019408  10.0320000 133.0859408  69.2279408   9.9500000
 134.3769408  68.5189408   9.5980000 133.8409408  75.9929408  19.9150000
 133.3829408  75.6059408  19.1690000 134.1529408  76.8389408  19.5910000
 137.9259408  73.8949408  14.1400000 136.9729408  73.9149408  14.2200000
 138.2449408  74.1439408  15.0080000 137.9639408  64.7779408   0.3340000
 137.0519408  65.0459408   0.4500000 138.1979408  64.3589408   1.1630000
 126.0819408  71.7559408   3.1260000 125.2619408  72.2489408   3.0890000
 126.7199408  72.3779408   3.4750000 140.7849408  71.9599408  17.6010000
 141.3309408  71.2469408  17.2700000 140.9109408  72.6709408  16.9720000
 136.0959408  70.7469408   9.5820000 135.3069408  70.3579408   9.9590000
 136.3329408  70.1619408   8.8630000 131.8799408  71.9409408   3.1400000
 131.5959408  71.9629408   4.0530000 132.2839408  71.0799408   3.0340000
 130.6029408  78.1769408  12.3180000 129.6709408  78.0139408  12.4610000
 130.6839408  79.1309408  12.3230000 136.8019408  80.5669408  15.9690000
 137.5409408  79.9729408  15.8380000 136.7199408  81.0359408  15.1380000
 126.3819408  63.8779408   6.2780000 126.8239408  64.1609408   7.0780000
 126.7769408  64.4079408   5.5850000 137.8219408  70.6709408  24.7140000
 137.0509408  70.2079408  24.3860000 138.5589408  70.2549408  24.2680000
 140.9929408  76.8169408   1.4860000 141.3499408  77.6909408   1.3270000
 140.4049408  76.9299408   2.2320000 147.1529408  73.0869408  16.5300000
 147.5009408  72.5009408  17.2020000 146.4709408  72.5749408  16.0950000
 148.4819408  70.9349408   9.6410000 148.8959408  71.1749408  10.4700000
 148.9019408  71.4979408   8.9910000 134.8989408  86.5689408   8.8670000
 134.8359408  86.8249408   9.7880000 134.8469408  85.6129408   8.8800000
 126.4319408  69.2409408   9.6680000 125.6539408  69.7959408   9.6110000
 126.1929408  68.4429408   9.1960000 137.9739408  70.1959408   4.3400000
 138.5639408  70.9399408   4.4650000 138.2259408  69.5729408   5.0210000
 134.5639408  71.3319408  12.5050000 135.3129408  71.9219408  12.4160000
 134.8419408  70.5249408  12.0710000 125.8949408  79.3489408  10.4970000
 125.2319408  79.5939408  11.1420000 125.4229408  78.8129408   9.8600000
 130.5329408  64.8369408  11.0850000 130.4469408  65.5079408  10.4070000
 131.3799408  65.0149408  11.4930000 128.3729408  83.4639408  13.1860000
 129.1639408  83.9339408  12.9220000 127.6539408  83.9979408  12.8490000
 128.0019408  73.8009408   4.2870000 128.6839408  74.4149408   4.0160000
 127.9259408  73.9279408   5.2330000 128.5919408  80.0079408  11.6570000
 127.6919408  79.6829408  11.6220000 128.5009408  80.9549408  11.7650000
 128.5059408  89.5499408   4.7200000 129.2599408  89.8159408   4.1930000
 128.6619408  89.9459408   5.5770000 124.0379408  87.2559408   9.9530000
 124.9729408  87.0479408   9.9550000 123.9999408  88.1869408   9.7350000
 137.8569408  65.7969408   6.3200000 138.7739408  65.6119408   6.1180000
 137.3679408  65.4069408   5.5960000 144.8209408  67.4299408   8.6100000
 144.9309408  66.7309408   7.9650000 145.4989408  68.0679408   8.3900000
 129.6499408  71.8419408   7.8760000 130.4039408  72.2779408   8.2730000
 129.2779408  71.3139408   8.5820000 137.8409408  71.3329408  21.0730000
 137.5779408  70.4969408  21.4570000 137.0239408  71.8229408  20.9800000
 136.4069408  63.6289408  19.0480000 137.1099408  64.2789408  19.0450000
 136.1969408  63.5069408  19.9740000 131.6449408  68.1269408  23.6070000
 131.9199408  67.4939408  24.2710000 131.9309408  68.9729408  23.9510000
 138.3389408  68.6359408  17.0160000 138.1949408  69.4509408  17.4970000
 139.2549408  68.4159408  17.1850000 127.8239408  69.7049408   1.9020000
 128.6989408  69.3949408   2.1340000 127.3699408  69.7939408   2.7400000
 133.4879408  68.3599408  17.7820000 132.5719408  68.4729408  18.0380000
 133.7179408  69.1799408  17.3450000 147.1329408  73.4899408   6.5760000
 146.2129408  73.7239408   6.4540000 147.5309408  74.2739408   6.9540000
 125.3919408  69.8369408  21.5440000 124.4879408  70.0839408  21.7380000
 125.8819408  70.6569408  21.5990000 135.6989408  73.6459408  21.5090000
 134.9289408  74.2119408  21.4530000 135.7449408  73.3939408  22.4310000
 125.3759408  65.8509408   4.5400000 125.9379408  66.5929408   4.3170000
 125.1269408  66.0039408   5.4520000 141.4999408  80.8909408  21.6630000
 141.5299408  81.8449408  21.5890000 141.2169408  80.5929408  20.7990000
 136.1989408  72.7839408  24.3270000 136.9519408  72.3809408  24.7590000
 135.5079408  72.1229408  24.3830000 140.3079408  72.6819408  21.5200000
 139.5659408  72.7069408  22.1230000 140.0339408  73.2229408  20.7790000
 143.5869408  71.2759408   3.3410000 142.6949408  71.6219408   3.3230000
 144.1119408  71.9439408   2.9000000 127.8799408  86.0279408  23.7110000
 128.5289408  86.2299408  23.0370000 127.0729408  85.8609408  23.2240000
 138.4169408  74.7709408  20.7260000 138.8399408  75.1919408  21.4750000
 137.5249408  74.5919408  21.0240000 140.1269408  77.4139408  17.2570000
 140.8569408  78.0169408  17.1180000 140.2649408  77.0689408  18.1390000
 137.7229408  69.0149408  14.5310000 138.2079408  69.8399408  14.5330000
 137.7629408  68.7109408  15.4380000 137.0589408  64.2909408   3.6940000
 137.3229408  63.4279408   4.0130000 136.3329408  64.1129408   3.0950000
 132.1429408  73.0499408  23.4810000 132.7959408  73.1569408  22.7890000
 131.8279408  73.9369408  23.6530000 129.2999408  64.7489408  16.6790000
 128.4779408  64.7659408  16.1890000 129.0309408  64.7099408  17.5970000
 130.2849408  69.8869408  12.5980000 130.8409408  69.1149408  12.4900000
 130.1829408  69.9779408  13.5460000 131.5199408  70.6549408  24.6330000
 131.7749408  71.4879408  24.2350000 130.7539408  70.3749408  24.1320000
 148.8309408  67.2719408   2.2880000 148.8699408  66.9779408   3.1980000
 149.5399408  66.7969408   1.8530000 132.8319408  66.0959408  25.8560000
 132.2219408  66.7999408  26.0740000 132.2899408  65.4319408  25.4300000
 142.0739408  69.3869408  29.4840000 142.9599408  69.0269408  29.4310000
 141.4999408  68.6319408  29.3590000 137.8369408  65.8009408  18.3520000
 138.7399408  65.6199408  18.0890000 137.7859408  66.7559408  18.3950000
 135.8959408  79.4069408  24.8660000 135.5879408  78.8379408  25.5710000
 136.8499408  79.3899408  24.9430000 132.3099408  77.8379408  18.4750000
 131.5999408  77.7869408  17.8350000 132.9599408  78.4099408  18.0670000
 141.5769408  70.0929408  13.5580000 140.8019408  70.5149408  13.9290000
 141.6999408  70.5189408  12.7100000 134.6799408  89.2389408  26.7010000
 135.3729408  89.7719408  26.3100000 134.3379408  89.7769408  27.4150000
 125.6739408  83.6199408   0.0820000 126.0949408  83.8689408   0.9050000
 126.3839408  83.2649408  -0.4520000 123.0279408  78.2679408   1.4330000
 123.1569408  79.2159408   1.4620000 123.8729408  77.9189408   1.1520000
 125.6639408  68.1749408  18.2520000 126.2629408  67.8789408  18.9380000
 125.1889408  67.3859408  17.9920000 125.9109408  66.2639408  23.1760000
 125.8639408  65.3079408  23.1610000 125.2579408  66.5469408  22.5370000
 123.5549408  72.7819408   3.2750000 122.7219408  72.4139408   3.5720000
 123.4619408  73.7249408   3.4110000 132.0799408  62.2879408  25.6550000
 131.8949408  62.3419408  26.5920000 131.6749408  63.0719408  25.2840000
 140.1159408  63.8369408  15.0270000 140.6079408  64.5009408  14.5440000
 139.2639408  63.8059408  14.5920000 129.1499408  89.6889408  22.5040000
 129.9349408  90.2339408  22.5540000 129.1679408  89.3219408  21.6200000
 125.6959408  66.5609408  27.9650000 126.2729408  66.7839408  27.2350000
 126.2299408  66.7069408  28.7460000 129.0229408  70.0999408  23.4030000
 128.3649408  70.6929408  23.7660000 128.5369408  69.3039408  23.1870000
 122.6359408  69.1879408  12.6550000 122.1249408  69.8089408  13.1730000
 121.9839408  68.6069408  12.2650000 130.1199408  61.7629408   3.4120000
 129.5699408  61.8339408   2.6310000 130.9739408  62.0939408   3.1340000
 135.5569408  85.5499408  26.2860000 134.8219408  84.9969408  26.0220000
 136.0899408  85.6339408  25.4950000 127.1549408  67.1399408  25.5410000
 126.6739408  67.0259408  24.7220000 127.2739408  68.0859408  25.6200000
 134.3109408  70.8199408  25.0000000 133.4729408  70.6859408  24.5580000
 134.6099408  69.9379408  25.2200000 144.7679408  66.0699408  17.1460000
 143.8289408  66.0299408  16.9640000 145.1819408  65.7409408  16.3480000
 125.1569408  71.4689408  15.1180000 124.3929408  71.0489408  15.5120000
 125.9069408  71.0229408  15.5130000 136.3049408  77.8459408  18.6500000
 136.4699408  78.5339408  18.0040000 136.6669408  77.0539408  18.2540000
 131.4229408  61.4139408  22.3640000 131.7979408  61.2949408  23.2370000
 132.1729408  61.6199408  21.8060000 124.3739408  62.0349408  22.5920000
 125.0449408  62.5869408  22.9950000 123.7539408  62.6539408  22.2080000
 127.8019408  76.5439408   7.0640000 127.6149408  75.6139408   7.1890000
 127.8329408  76.9049408   7.9500000 121.7749408  60.6259408  28.9360000
 122.5749408  61.0719408  29.2140000 121.1079408  61.3129408  28.9280000
 132.7309408  72.2139408  18.9580000 132.2289408  71.4239408  18.7610000
 132.6519408  72.7509408  18.1690000 130.8119408  64.5099408  24.7060000
 129.9129408  64.5729408  25.0290000 130.7219408  64.4639408  23.7540000
 127.4109408  68.2469408  22.5390000 127.0039408  67.3889408  22.6570000
 126.8979408  68.6629408  21.8460000 125.9589408  62.4859408  29.6520000
 125.4029408  62.4139408  30.4270000 125.4749408  62.0279408  28.9650000
 148.9339408  59.9049408  27.3680000 149.3039408  60.6489408  27.8430000
 149.4589408  59.8439408  26.5700000 138.8269408  63.5309408  22.3500000
 138.8589408  62.6169408  22.6340000 139.3369408  63.5479408  21.5400000
 133.0339408  74.4019408   3.2410000 133.4299408  74.6769408   2.4150000
 132.6019408  73.5729408   3.0360000 134.6579408  61.6439408  24.3280000
 135.2989408  61.5509408  25.0330000 133.8909408  62.0299408  24.7510000
 129.2199408  70.8319408  20.8010000 128.2959408  70.9889408  20.6070000
 129.2279408  70.5439408  21.7140000 128.1889408  77.1529408  23.5900000
 129.0689408  77.0679408  23.9560000 127.9749408  78.0809408  23.6910000
 127.2109408  68.0059408   5.3860000 126.6419408  68.7579408   5.5510000
 127.9689408  68.1489408   5.9520000 141.0649408  69.6399408   2.0140000
 141.5329408  69.0169408   2.5690000 141.5449408  69.6309408   1.1850000
 124.8949408  78.8529408   6.4910000 125.2919408  79.6979408   6.7040000
 125.4089408  78.5259408   5.7530000 120.8779408  89.1329408   1.2170000
 121.1779408  89.6449408   0.4660000 121.0379408  88.2229408   0.9670000
 126.9089408  64.5699408  15.4710000 126.4269408  65.1219408  14.8560000
 126.2819408  64.3849408  16.1700000 135.2509408  68.2789408  25.3330000
 134.5369408  67.6459408  25.4040000 135.7219408  68.2039408  26.1630000
 136.1519408  76.8349408   6.9130000 135.4469408  76.5409408   6.3350000
 135.7099408  77.0769408   7.7270000 135.4429408  60.1609408  13.2290000
 136.1079408  59.5109408  13.4580000 135.5879408  60.8799408  13.8430000
 144.0269408  79.3799408  21.4100000 144.2849408  78.4959408  21.6720000
 143.1719408  79.5119408  21.8210000 134.3959408  78.1949408  10.7400000
 134.3709408  78.1429408  11.6950000 134.2869408  77.2889408  10.4480000
 125.1149408  64.0059408  26.8730000 124.1869408  64.1409408  26.6820000
 125.3489408  64.7299408  27.4530000 141.5419408  62.2789408  24.3060000
 141.1949408  62.1159408  23.4290000 141.4429408  61.4439408  24.7630000
 134.6329408  83.1429408  10.1660000 134.8209408  83.6079408   9.3500000
 134.7559408  82.2189408   9.9490000 135.3159408  72.0549408  16.3340000
 134.9349408  72.8129408  16.7780000 136.1729408  71.9419408  16.7450000
 142.2929408  77.8109408  23.8080000 142.1829408  77.0259408  24.3450000
 142.7159408  78.4419408  24.3890000 129.7159408  77.2639408   0.6440000
 130.4809408  76.8889408   0.2080000 130.0779408  77.7609408   1.3780000
 120.1669408  68.8079408  20.3710000 119.8829408  68.0049408  20.8070000
 119.9809408  69.5029408  21.0020000 131.3649408  69.9299408  18.7550000
 130.7509408  69.2719408  18.4300000 131.2129408  69.9549408  19.7000000
 134.3869408  80.9349408   1.0510000 133.5169408  81.2199408   0.7720000
 134.8489408  80.7409408   0.2360000 130.7769408  69.9669408  15.3550000
 131.7099408  70.1599408  15.2610000 130.7469408  69.1889408  15.9110000
 123.5569408  67.1909408  26.0440000 124.3569408  66.6719408  26.1280000
 123.4109408  67.2549408  25.1000000 139.8279408  75.7489408  13.0870000
 140.5869408  75.7009408  13.6680000 139.2939408  74.9909408  13.3260000
 148.4329408  61.3169408  17.7720000 148.3759408  60.3929408  18.0160000
 148.3789408  61.7879408  18.6040000 136.9629408  76.6139408  22.6300000
 136.8069408  77.5369408  22.8310000 137.8629408  76.5879408  22.3060000
 146.9299408  71.9079408   1.8610000 146.9209408  72.4829408   2.6270000
 147.6339408  71.2839408   2.0360000 135.8339408  63.3109408   1.4930000
 136.3929408  62.5349408   1.4550000 135.4889408  63.4019408   0.6050000
 120.8749408  63.4179408  23.9600000 120.5559408  62.5409408  23.7490000
 121.6379408  63.5389408  23.3940000 133.8929408  79.7199408  17.2500000
 133.8199408  80.5249408  16.7370000 134.7049408  79.3139408  16.9450000
 130.5189408  67.1779408  15.9270000 130.5439408  66.3239408  16.3590000
 130.1409408  66.9999408  15.0660000 135.9109408  87.6449408  20.9300000
 135.4609408  86.9469408  20.4540000 135.2979408  87.8989408  21.6190000
 135.5579408  64.1889408  26.1150000 134.8629408  64.8469408  26.1260000
 135.7909408  64.1009408  25.1910000 137.6369408  90.0739408  22.6510000
 137.4279408  89.3739408  22.0330000 137.3079408  89.7569408  23.4920000
 129.3779408  68.0839408  28.2570000 128.8019408  68.1769408  27.4980000
 130.1869408  68.5259408  28.0000000 127.9469408  67.0969408  19.7360000
 127.9239408  66.1409408  19.7090000 128.7869408  67.3059408  20.1460000
 136.8989408  89.9439408   5.6780000 136.7499408  89.2089408   6.2740000
 136.6159408  89.6199408   4.8230000 129.8299408  87.2289408   5.4010000
 128.9329408  87.4469408   5.1470000 130.3679408  87.5429408   4.6740000
 138.4289408  89.3959408  28.3290000 137.9429408  88.5779408  28.2260000
 138.7299408  89.3839408  29.2380000 121.1219408  66.0539408   9.6410000
 120.6489408  66.3209408   8.8530000 121.9209408  66.5809408   9.6320000
 131.1519408  82.9069408  20.7830000 131.1849408  81.9589408  20.9060000
 130.5209408  83.0349408  20.0740000 131.0869408  85.7069408   7.3250000
 130.8939408  86.1889408   8.1280000 130.7599408  86.2699408   6.6230000
 122.6749408  78.7829408  10.9760000 123.1839408  79.3299408  11.5740000
 123.0549408  78.9529408  10.1140000 133.9669408  75.5319408   5.7910000
 134.1179408  74.5939408   5.6770000 133.3829408  75.7699408   5.0710000
 122.1679408  64.6769408  12.0900000 121.6919408  65.0179408  11.3330000
 121.8439408  65.1909408  12.8290000 129.7219408  88.0699408   8.6160000
 129.4219408  88.0619408   7.7080000 129.1469408  88.6979408   9.0530000
 131.7279408  80.3879408  21.2710000 131.6209408  79.5149408  20.8940000
 132.3419408  80.2629408  21.9960000 148.0529408  85.8899408  12.2050000
 148.2489408  86.7309408  12.6180000 147.0989408  85.8779408  12.1250000
 133.8599408  66.7389408   2.4700000 133.0679408  67.2019408   2.1940000
 133.5509408  66.0939408   3.1060000 124.9999408  89.5199408  18.2440000
 125.1339408  89.6689408  19.1800000 124.6149408  90.3359408  17.9240000
 130.5059408  79.8669408   6.1100000 129.8559408  79.5139408   5.5030000
 129.9949408  80.3779408   6.7380000 133.0909408  65.1259408   4.6640000
 133.6829408  65.1169408   5.4160000 132.3979408  64.5079408   4.8970000
 120.0379408  81.4779408   4.6990000 120.9309408  81.1549408   4.5830000
 119.4899408  80.8369408   4.2450000 135.7609408  85.8819408   4.7460000
 135.6409408  85.0999408   4.2060000 134.9199408  85.9989408   5.1890000
 134.2179408  80.3289408  13.1910000 134.4609408  81.2159408  12.9250000
 135.0449408  79.9189408  13.4450000 137.6079408  81.4719408  21.4500000
 137.1129408  82.1989408  21.8280000 137.2049408  80.6879408  21.8230000
 132.8429408  84.9729408  21.9030000 132.4879408  84.2539408  21.3800000
 133.3269408  85.5089408  21.2750000 124.6779408  82.4899408  16.5850000
 125.2769408  83.2359408  16.6160000 125.2109408  81.7439408  16.8610000
 125.7979408  81.3969408   6.7650000 126.4539408  81.7799408   7.3470000
 124.9819408  81.4349408   7.2640000 137.4849408  87.6719408   7.7400000
 136.6389408  87.2889408   7.9700000 137.8719408  87.0489408   7.1250000
 122.3099408  78.7869408   5.5240000 121.6629408  78.6259408   6.2120000
 123.1549408  78.6519408   5.9530000 134.3059408  88.7819408   7.3720000
 134.7559408  88.1469408   7.9280000 133.9669408  88.2639408   6.6420000
 144.3189408  84.7159408  14.1060000 144.8969408  83.9829408  13.8980000
 144.5489408  85.3919408  13.4680000 126.4959408  78.9039408   2.3800000
 125.9039408  79.5189408   1.9470000 125.9969408  78.0889408   2.4350000
 136.4369408  79.0669408  21.2430000 136.5039408  78.3559408  20.6060000
 135.6939408  79.5899408  20.9420000 127.2649408  83.0889408   3.3920000
 127.5729408  83.8519408   2.9040000 127.6459408  83.1919408   4.2640000
 130.3759408  83.4779408  17.1180000 129.6279408  83.2069408  17.6500000
 130.5139408  82.7509408  16.5100000 135.4449408  85.1009408  14.0140000
 136.2459408  85.2109408  13.5020000 135.0809408  84.2679408  13.7140000
 129.1669408  65.4379408   5.7480000 128.8509408  65.6709408   4.8750000
 129.4189408  64.5179408   5.6750000 124.2729408  80.1469408  12.5690000
 123.8439408  80.9559408  12.8460000 125.0339408  80.0699408  13.1450000
 123.2469408  75.4839408   3.2100000 123.6359408  76.1419408   2.6340000
 123.7999408  75.4919408   3.9910000 124.1789408  77.7809408   8.9290000
 124.2309408  78.1619408   8.0530000 123.5919408  77.0319408   8.8310000
 131.1639408  89.3629408  14.0990000 131.9599408  89.0219408  14.5070000
 130.8289408  90.0059408  14.7250000 131.2709408  89.4239408   0.7540000
 131.1439408  89.1009408  -0.1380000 130.7259408  90.2099408   0.8040000
 130.1639408  74.3359408  17.9330000 129.7059408  73.4989408  17.8530000
 130.9369408  74.2409408  17.3770000 126.7049408  84.8669408   7.0240000
 127.3139408  84.3839408   6.4660000 126.0519408  85.2189408   6.4190000
 120.7809408  77.7779408   3.0700000 121.3749408  77.8329408   3.8190000
 121.3059408  78.0689408   2.3250000 126.9129408  86.0559408  13.0170000
 126.7609408  86.9919408  13.1450000 127.8609408  85.9539408  13.1010000
 129.9689408  85.5049408  11.5150000 130.0609408  86.2039408  12.1630000
 129.5309408  85.9229408  10.7730000 132.8559408  62.0519408   9.6080000
 133.6339408  61.5559408   9.8640000 132.6389408  62.5739408  10.3800000
 130.9059408  82.2719408   1.9450000 130.8709408  81.3879408   1.5790000
 130.4339408  82.8129408   1.3120000 120.6149408  74.7429408   2.4330000
 119.9859408  75.4539408   2.5520000 121.4659408  75.1429408   2.6100000
 135.8529408  83.8829408   7.9390000 135.9139408  83.7729408   6.9900000
 136.7569408  84.0099408   8.2250000 127.6779408  75.6369408  18.2270000
 127.3809408  75.6059408  19.1360000 128.4549408  75.0779408  18.2080000
 124.3649408  82.5619408  10.9050000 123.8259408  83.0119408  11.5560000
 125.0559408  83.1889408  10.6910000 131.6299408  83.2589408  11.2250000
 131.9139408  83.2529408  10.3110000 130.9499408  83.9319408  11.2610000
 123.3079408  82.3489408  14.1740000 123.6449408  83.1049408  13.6930000
 123.8179408  82.3319408  14.9840000 140.0859408  63.0319408   1.4180000
 140.4329408  62.3479408   0.8450000 139.2249408  62.7079408   1.6830000
 148.1769408  62.4219408  20.1510000 147.3749408  62.2089408  20.6290000
 148.4289408  63.2859408  20.4760000 139.2209408  88.9019408   9.3070000
 138.6819408  89.2899408   9.9960000 138.5979408  88.6619408   8.6210000
 120.9919408  59.9949408  25.7370000 121.7769408  60.0659408  25.1940000
 121.2419408  60.3889408  26.5730000 120.7819408  76.6869408  15.9170000
 120.1779408  76.2529408  16.5200000 120.3069408  77.4619408  15.6180000
 126.7389408  84.1779408   9.9850000 126.8389408  85.0859408  10.2700000
 126.8689408  84.2079408   9.0370000 130.4329408  61.4439408  15.7220000
 130.5989408  61.4719408  16.6650000 130.7079408  62.3039408  15.4050000
 123.3309408  79.3729408  18.2010000 122.4419408  79.5659408  18.5000000
 123.8949408  79.6769408  18.9110000 146.3379408  68.5209408  14.7070000
 145.9319408  69.3879408  14.7270000 145.5999408  67.9109408  14.7000000
 123.1059408  81.9459408   8.1800000 123.4189408  82.7029408   8.6760000
 122.1519408  82.0229408   8.2010000 127.0619408  81.4499408   9.2770000
 127.2629408  82.2119408   9.8210000 126.5489408  80.8769408   9.8470000
 132.0659408  88.8869408   9.7040000 131.2279408  88.5389408   9.3980000
 132.5209408  89.1529408   8.9050000 131.2699408  86.0949408  16.5260000
 131.8939408  86.0249408  15.8040000 131.2699408  85.2259408  16.9290000
 130.8659408  78.4719408   2.7640000 130.6719408  79.4039408   2.8690000
 131.5619408  78.2989408   3.3990000 133.6439408  60.4429408   1.8470000
 132.8629408  60.2199408   1.3410000 133.6489408  61.3999408   1.8730000
 123.1739408  60.5829408   4.5740000 124.1289408  60.6499408   4.5680000
 122.8779408  61.4079408   4.9580000 129.4209408  81.4549408   7.9740000
 128.8169408  81.4819408   8.7160000 130.2109408  81.8929408   8.2920000
 148.8549408  83.9129408  10.4620000 148.1329408  83.2899408  10.3720000
 148.5459408  84.5469408  11.1090000 129.8059408  75.8759408  21.7940000
 128.8959408  76.1509408  21.9020000 129.7489408  74.9669408  21.5000000
 127.9939408  81.3219408  14.6600000 128.8919408  81.3319408  14.9910000
 127.9779408  82.0019408  13.9870000 145.4639408  85.1709408   8.5830000
 144.5769408  85.4189408   8.3240000 145.9009408  84.9499408   7.7600000
 144.4759408  80.8279408  19.0240000 145.3199408  81.0919408  18.6570000
 144.7019408  80.2359408  19.7420000 128.2409408  79.7249408  25.2630000
 128.0479408  79.1849408  26.0300000 129.1959408  79.7239408  25.2030000
 132.9509408  61.3049408  12.5350000 133.5739408  60.6049408  12.7320000
 132.1069408  60.9639408  12.8300000 149.8429408  86.8959408   8.9490000
 149.2369408  86.1979408   8.6960000 150.4319408  86.4839408   9.5810000
 133.2739408  86.0209408   5.5640000 133.0779408  85.8549408   6.4860000
 132.5129408  85.6839408   5.0920000 133.9679408  83.1959408  12.7510000
 133.0609408  83.1179408  12.4530000 134.4749408  83.3119408  11.9480000
 148.8189408  88.9629408  19.5480000 149.3499408  88.7979408  20.3270000
 147.9169408  88.8389408  19.8420000 127.1999408  62.1849408  19.7970000
 127.7519408  61.4189408  19.6400000 126.4489408  61.8439408  20.2840000
 136.6659408  72.2829408   1.1970000 136.1439408  73.0379408   0.9240000
 136.2319408  71.9649408   1.9890000 134.5009408  72.8519408   5.8720000
 134.3729408  72.6739408   6.8040000 133.6179408  72.8409408   5.5020000
 130.8959408  79.7499408   9.9370000 130.1039408  79.8069408  10.4710000
 131.6099408  79.9329408  10.5480000 139.0259408  74.6979408   5.6060000
 139.1789408  75.5409408   6.0320000 138.8219408  74.0999408   6.3250000
 126.7689408  88.4729408  14.2330000 127.3599408  89.2059408  14.4070000
 125.9639408  88.6979408  14.6990000 147.3529408  60.3099408  12.8330000
 147.5099408  59.6729408  13.5300000 147.9369408  61.0399408  13.0390000
 132.1129408  78.3489408   7.7370000 131.7449408  78.5769408   8.5910000
 131.5649408  78.8179408   7.1070000 126.8329408  80.5419408  17.8900000
 127.4509408  79.8449408  17.6710000 126.2749408  80.1639408  18.5700000
 145.2199408  74.8659408   1.3530000 145.3179408  74.0859408   0.8060000
 144.4369408  75.3009408   1.0120000 138.8679408  87.6099408   3.3490000
 139.7269408  87.3279408   3.6620000 138.2529408  87.2769408   4.0020000
 128.3579408  64.1779408   1.8600000 128.4489408  64.8209408   2.5630000
 127.5369408  63.7239408   2.0540000 131.2019408  88.7629408   3.4690000
 131.2119408  89.5939408   3.9450000 131.6049408  88.9659408   2.6240000
 126.1329408  83.5059408  20.1000000 126.3269408  83.2889408  19.1880000
 126.9599408  83.8419408  20.4480000 130.2109408  88.4339408  11.9620000
 131.0079408  88.2959408  11.4500000 130.5229408  88.6039408  12.8510000
 137.3879408  82.3639408  27.4260000 137.6389408  82.8729408  28.1970000
 138.1209408  82.4709408  26.8190000 121.6809408  88.4499408   7.5820000
 122.3499408  87.9409408   7.1260000 120.8959408  87.9039408   7.5440000
 145.9239408  82.7609408  13.2040000 145.7279408  82.7439408  12.2670000
 146.0819408  81.8459408  13.4340000 139.3099408  86.6769408  14.0320000
 139.6109408  86.8749408  14.9190000 139.3619408  85.7229408  13.9680000
 123.3539408  84.7089408   9.0660000 123.7559408  85.5449408   9.3010000
 122.5179408  84.9489408   8.6650000 121.4129408  86.7549408   0.3960000
 122.1889408  87.0679408  -0.0690000 121.2349408  85.8959408   0.0140000
 149.6089408  87.8679408  15.3230000 150.1049408  87.1339408  14.9590000
 150.2649408  88.5469408  15.4810000 142.3659408  74.6299408   8.6880000
 141.7399408  74.6659408   9.4110000 143.1379408  75.0919408   9.0160000
 121.5119408  79.0599408  13.6060000 120.8219408  79.4449408  13.0660000
 122.0049408  78.5029408  13.0030000 133.2799408  82.0519408  15.6120000
 132.3279408  81.9589408  15.6370000 133.5199408  81.8259408  14.7140000
 132.9559408  81.3659408   6.3640000 133.4859408  81.8059408   5.6990000
 132.4029408  80.7609408   5.8690000 123.4409408  66.1809408   1.9050000
 124.0029408  66.8479408   1.5100000 123.9759408  65.7989408   2.6010000
 137.0119408  83.5979408   0.0990000 137.4669408  84.3679408   0.4400000
 136.1409408  83.9179408  -0.1370000 138.2589408  72.5979408   7.4360000
 137.7069408  71.9699408   6.9700000 137.6589408  73.0499408   8.0290000
 120.1369408  63.5589408   5.8370000 119.9919408  62.6449408   5.5950000
 120.0729408  63.5669408   6.7920000 146.3759408  83.1479408  22.1470000
 145.9069408  83.8409408  21.6830000 147.2419408  83.1299408  21.7400000
 128.6959408  64.9359408  26.2190000 128.5659408  64.8349408  27.1620000
 127.9669408  65.4869408  25.9330000 125.0549408  60.9999408  27.6170000
 125.2369408  61.8089408  27.1400000 124.9239408  60.3429408  26.9330000
 124.7479408  86.4299408   2.0810000 124.8309408  85.7089408   2.7050000
 123.9279408  86.8609408   2.3190000 129.2759408  86.4629408  14.7030000
 129.7309408  86.2569408  15.5190000 129.1089408  87.4049408  14.7520000
 143.3719408  89.3539408  16.9710000 143.3079408  88.3989408  16.9860000
 142.9949408  89.6059408  16.1290000 136.2559408  83.4489408  22.4580000
 135.9049408  83.5529408  21.5740000 135.4959408  83.5559408  23.0320000
 126.9949408  75.9949408  20.7340000 126.4209408  75.7369408  21.4560000
 126.9939408  76.9519408  20.7580000 136.4109408  87.9309408  16.0400000
 136.7929408  88.4529408  16.7440000 136.9819408  88.0879408  15.2870000
 134.1419408  84.1589408  24.0840000 133.6309408  83.3779408  24.2940000
 133.5819408  84.6599408  23.4910000 125.5179408  80.8639408   0.6340000
 124.6129408  80.9029408   0.3240000 125.8689408  81.7369408   0.4600000
 143.3409408  85.3679408  26.2690000 143.8739408  85.7849408  25.5910000
 142.6439408  85.9989408  26.4470000 141.0999408  87.1969408  26.2780000
 140.7519408  87.3389408  25.3980000 141.3499408  88.0699408  26.5810000
 134.6979408  85.7839408  19.6430000 134.8279408  85.7939408  18.6940000
 134.6369408  84.8559408  19.8670000 131.6579408  89.4879408  25.1230000
 131.5199408  90.2759408  25.6490000 132.5939408  89.3049408  25.2060000
 125.6269408  85.5319408  22.0670000 126.1349408  85.9269408  21.3580000
 125.2669408  84.7309408  21.6870000 128.4599408  62.5539408  24.9290000
 128.0919408  61.8119408  25.4080000 128.4689408  63.2689408  25.5650000
 144.5209408  77.0009408  22.3890000 145.1209408  76.3069408  22.6620000
 143.6929408  76.7869408  22.8180000 130.6369408  81.0749408  15.7480000
 131.0509408  80.3259408  16.1760000 130.8889408  80.9959408  14.8280000
 134.6019408  88.8039408  23.5100000 135.1489408  88.3629408  24.1610000
 134.6489408  89.7299408  23.7450000 137.2359408  85.8399408  24.2300000
 137.9919408  85.7569408  23.6490000 136.6439408  85.1399408  23.9550000
 136.3829408  85.0279408  16.5230000 135.9809408  84.9789408  15.6560000
 136.6939408  85.9299408  16.5930000 128.7329408  85.2859408   2.7840000
 129.4529408  85.3559408   2.1580000 128.2929408  86.1349408   2.7390000
 146.7709408  63.6649408  22.7270000 146.7729408  62.8369408  23.2070000
 147.3549408  64.2339408  23.2270000 129.9189408  63.5539408  21.8240000
 129.1149408  63.4609408  22.3350000 130.5089408  62.8899408  22.1800000
 128.4839408  72.6569408  12.7750000 128.7579408  73.2109408  12.0450000
 129.2489408  72.1129408  12.9640000 124.8689408  82.0059408   4.4930000
 125.4839408  82.3369408   3.8380000 125.3879408  81.9349408   5.2950000
 121.1839408  83.8679408   2.2820000 121.7039408  83.3719408   1.6500000
 121.6219408  83.7219408   3.1200000 121.2759408  80.9209408  22.3260000
 121.5259408  80.2529408  21.6880000 121.9619408  81.5849408  22.2600000
 127.4129408  86.2019408  20.0570000 127.4249408  86.6489408  19.2110000
 128.2419408  86.4469408  20.4690000 130.8449408  62.1909408  28.1290000
 129.9649408  61.9919408  27.8090000 130.7209408  62.4099408  29.0520000
 141.6459408  85.8579408  19.2480000 141.8839408  85.4889408  18.3980000
 141.1379408  85.1669408  19.6750000 146.5009408  83.4099408   3.8900000
 147.2679408  83.2959408   3.3290000 146.1529408  84.2679408   3.6490000
 132.1069408  88.3369408  22.1520000 132.8629408  88.3479408  22.7390000
 131.9139408  89.2609408  21.9920000 135.8789408  62.1039408  21.6990000
 135.5149408  61.9559408  22.5720000 136.7829408  61.7959408  21.7610000
 128.8949408  81.6709408  19.8570000 128.2309408  81.5909408  19.1720000
 128.9859408  80.7849408  20.2080000 139.3409408  79.3989408  20.3370000
 139.0289408  79.1119408  19.4790000 138.5439408  79.5879408  20.8320000
 134.5349408  63.3569408  28.7370000 134.1719408  62.4879408  28.5610000
 135.0539408  63.5609408  27.9590000 137.1019408  75.7249408  25.9070000
 137.7749408  76.4049408  25.8650000 136.2939408  76.1989408  26.1020000
 133.0649408  61.5539408  20.0000000 133.9649408  61.6039408  20.3230000
 132.9399408  60.6309408  19.7800000 128.2529408  61.2669408  28.1430000
 127.5959408  61.4079408  28.8250000 128.1889408  60.3329408  27.9390000
 130.1359408  82.0139408  23.1660000 130.2959408  82.4989408  22.3560000
 130.9959408  81.9489408  23.5810000 138.4869408  68.0279408   1.6070000
 139.1999408  68.3819408   2.1380000 138.0509408  68.7999408   1.2450000
 134.4529408  80.9099408   3.7780000 134.3679408  80.7669408   2.8350000
 135.0229408  80.2019408   4.0770000 127.1399408  87.5469408  17.6840000
 126.8289408  87.2759408  16.8200000 126.5409408  88.2459408  17.9460000
 145.0939408  63.0129408  25.4040000 144.7599408  62.6939408  24.5660000
 145.6369408  62.2969408  25.7340000 135.7979408  88.7229408   3.2530000
 135.6619408  87.7969408   3.0530000 135.1299408  89.1799408   2.7420000
 129.0859408  61.1759408   1.1750000 128.4019408  60.5059408   1.1510000
 128.6729408  61.9539408   0.8020000 128.0329408  89.1679408  10.5370000
 128.6119408  88.8459408  11.2270000 127.5109408  89.8489408  10.9610000
 132.8329408  76.8609408  13.8650000 132.4649408  75.9809408  13.9370000
 132.1939408  77.3459408  13.3420000 125.5019408  60.1759408  20.8970000
 125.1519408  60.8029408  21.5300000 125.3639408  59.3209408  21.3060000
 134.6709408  67.7959408   5.3550000 135.3629408  67.6749408   4.7050000
 134.3999408  66.9069408   5.5840000 132.2429408  66.3459408   7.8770000
 133.0639408  65.9189408   7.6340000 131.5769408  65.9019408   7.3520000
 144.9609408  75.1169408   6.4150000 144.0719408  75.3439408   6.1410000
 145.4919408  75.8699408   6.1570000 139.3769408  67.5459408  12.7920000
 139.5639408  67.9789408  11.9590000 138.9799408  68.2279408  13.3340000
 149.9389408  72.9329408  20.1570000 149.2409408  73.5489408  19.9330000
 149.5489408  72.0699408  20.0180000 143.4369408  68.0999408  14.6000000
 143.0629408  68.4679408  13.7990000 143.0709408  67.2169408  14.6520000
 147.4789408  63.9939408  10.6530000 147.3369408  64.2939408   9.7560000
 147.7139408  63.0699408  10.5640000 143.8419408  67.9109408  11.1330000
 143.2649408  68.4849408  10.6300000 144.5029408  67.6239408  10.5030000
 144.1399408  61.3499408  10.9420000 143.2239408  61.4689408  11.1920000
 144.1099408  60.7419408  10.2040000 142.8249408  81.8459408  29.9020000
 143.1099408  81.1609408  30.5080000 143.3979408  81.7459408  29.1420000
 120.0609408  66.7279408  17.5830000 120.7789408  67.3319408  17.7720000
 119.7179408  67.0209408  16.7390000 139.3879408  72.0239408   1.7080000
 138.4449408  72.1189408   1.5730000 139.5609408  71.0969408   1.5410000
 138.6229408  64.8899408  12.5080000 139.1929408  64.4829408  11.8550000
 138.9969408  65.7609408  12.6440000 148.2209408  83.3229408  14.8680000
 147.5639408  83.4529408  14.1850000 149.0359408  83.1649408  14.3900000
 147.7609408  62.7849408   3.9490000 148.2159408  62.0179408   3.6010000
 147.0409408  62.9349408   3.3370000 135.8699408  67.0169408   0.6600000
 135.2029408  66.8519408   1.3270000 136.4569408  67.6569408   1.0610000
 139.5339408  77.2399408  26.6460000 140.2919408  76.8729408  26.1910000
 139.5379408  76.8119408  27.5020000 145.9399408  65.4359408  14.7680000
 146.1589408  65.8389408  13.9280000 145.7629408  64.5199408  14.5560000
 145.4509408  66.9699408   5.4990000 144.8859408  66.2069408   5.3780000
 145.7639408  67.1789408   4.6180000 120.4629408  82.8909408  13.2580000
 120.2129408  81.9829408  13.0880000 121.3599408  82.8359408  13.5870000
 134.7979408  71.2589408  20.4950000 134.1209408  71.7319408  20.0110000
 135.3779408  71.9449408  20.8280000 138.4659408  83.8039408   9.1880000
 138.8379408  84.6159408   8.8460000 138.9149408  83.1109408   8.7040000
 136.7079408  67.0059408   3.8860000 137.1969408  67.5149408   3.2390000
 136.7849408  66.0999408   3.5860000 125.6159408  63.9159408  17.9620000
 126.1299408  63.4149408  18.5940000 125.1099408  63.2559408  17.4870000
 145.2969408  65.6169408  19.7390000 146.1719408  65.2819408  19.5430000
 144.9219408  65.8239408  18.8830000 130.5079408  67.1349408  20.9140000
 131.3479408  66.7929408  20.6060000 130.6289408  67.2549408  21.8560000
 125.4309408  68.9249408  13.3460000 124.5449408  68.8439408  13.6980000
 125.4069408  69.7229408  12.8170000 149.5329408  60.6999408   3.3760000
 150.1959408  60.7629408   2.6890000 149.1429408  59.8339408   3.2540000
 139.1209408  71.3209408  13.8360000 138.7309408  71.3989408  12.9650000
 138.7629408  72.0599408  14.3270000 143.4509408  76.6139408  17.9200000
 143.0099408  77.2459408  17.3520000 142.8429408  76.4799408  18.6470000
 121.2429408  85.3819408  11.0890000 121.8839408  84.7989408  10.6820000
 120.4409408  84.8619408  11.1370000 120.5589408  63.4369408   2.1060000
 120.9039408  63.9419408   1.3700000 119.6199408  63.3699408   1.9320000
 145.4529408  83.0009408   6.3470000 146.1639408  82.5919408   6.8410000
 145.8259408  83.1649408   5.4810000 139.8289408  72.1619408   4.8400000
 140.2879408  72.3219408   5.6640000 139.5549408  73.0299408   4.5450000
 138.0169408  67.0069408  27.2190000 137.3259408  66.5609408  27.7080000
 138.0999408  66.5049408  26.4080000 145.5609408  71.1319408  15.4750000
 145.1189408  70.5969408  16.1340000 144.8589408  71.6419408  15.0700000
 121.6959408  74.5629408   5.6540000 121.0739408  74.5129408   4.9270000
 121.7619408  73.6639408   5.9750000 146.7429408  63.6139408  17.8620000
 146.4659408  64.0829408  17.0750000 146.0469408  62.9769408  18.0200000
 141.6259408  79.4869408   1.2030000 142.4039408  79.0829408   1.5860000
 141.3859408  80.1789408   1.8190000 139.8959408  67.7829408  29.2340000
 139.4559408  67.5179408  28.4260000 139.2739408  67.5689408  29.9280000
 149.2179408  83.7659408   5.8380000 149.3659408  84.3189408   5.0710000
 149.4309408  82.8809408   5.5410000 141.2669408  60.7559408   8.5830000
 141.3999408  61.0999408   9.4660000 140.5919408  60.0849408   8.6870000
 144.1839408  64.4299408  29.2750000 143.9199408  65.0219408  28.5710000
 143.4349408  64.4179408  29.8720000 147.0209408  60.6149408  23.3560000
 146.1119408  60.3729408  23.1770000 147.4589408  59.7839408  23.5400000
 147.0549408  80.3509408  13.5330000 146.2059408  80.0659408  13.1960000
 147.4329408  79.5649408  13.9270000 143.3629408  65.0449408  11.8150000
 143.7649408  65.8809408  11.5770000 144.1039408  64.4649408  11.9930000
 144.9759408  61.0289408  20.1130000 144.6729408  61.3969408  19.2830000
 144.4759408  61.4979408  20.7810000 142.5319408  83.9129408  16.2690000
 143.3199408  83.8259408  16.8050000 142.8589408  84.0669408  15.3830000
 146.3219408  67.4929408  23.9420000 146.3019408  66.7529408  24.5480000
 147.1049408  67.9849408  24.1900000 120.1739408  71.8329408  11.6060000
 120.4409408  71.6049408  12.4960000 120.8999408  72.3529408  11.2630000
 145.7369408  79.1459408   8.1800000 144.8499408  79.1279408   8.5390000
 146.1869408  78.4239408   8.6170000 136.6539408  69.5689408   7.1000000
 136.2859408  69.1019408   6.3490000 137.5579408  69.2609408   7.1550000
 138.3429408  85.7469408   6.0430000 138.8659408  84.9999408   5.7510000
 137.5969408  85.7659408   5.4440000 124.7929408  85.8129408   5.2480000
 124.3529408  86.6369408   5.4600000 124.0799408  85.1949408   5.0880000
 143.2419408  83.1659408  10.4920000 142.9709408  83.7249408   9.7630000
 142.5509408  82.5069408  10.5570000 145.7379408  86.5139408  16.0000000
 145.5399408  85.6189408  15.7260000 144.8859408  86.8929408  16.2160000
 120.0309408  66.3349408   7.2890000 119.4529408  65.8939408   6.6650000
 120.7089408  66.7369408   6.7450000 125.4109408  61.6389408  14.1010000
 126.3529408  61.5459408  13.9540000 125.1199408  62.2449408  13.4200000
 140.9789408  71.3509408  28.1040000 141.4849408  70.7389408  28.6380000
 141.4719408  71.4199408  27.2860000 132.0409408  63.7889408   0.3090000
 131.4489408  64.5119408   0.1020000 132.7159408  63.8299408  -0.3690000
 144.4599408  62.0869408  17.5660000 144.6979408  62.1839408  16.6440000
 143.9199408  61.2969408  17.5930000 128.5499408  64.3989408  19.4280000
 129.1569408  64.0959408  20.1040000 127.8149408  63.7869408  19.4750000
 147.6739408  67.2299408  28.4930000 148.1929408  68.0039408  28.2730000
 147.5139408  66.7999408  27.6530000 141.2339408  61.7299408  11.0500000
 141.0569408  61.7479408  11.9900000 141.0979408  62.6329408  10.7630000
 142.1169408  66.2239408  16.4610000 141.5759408  66.8179408  16.9810000
 141.6809408  66.1839408  15.6100000 147.9949408  61.5439408   9.2960000
 147.6689408  60.7739408   9.7610000 147.5859408  61.4939408   8.4320000
 124.1849408  79.2609408  15.5620000 123.2749408  79.4589408  15.3410000
 124.2369408  79.3929408  16.5080000 141.5719408  76.0879408  19.4610000
 141.2589408  76.5549408  20.2350000 142.0279408  75.3219408  19.8100000
 144.5889408  72.8039408  18.0590000 145.3309408  72.2919408  17.7360000
 144.9889408  73.5189408  18.5550000 122.6959408  64.0899408  21.8710000
 122.3059408  63.5869408  21.1560000 122.9999408  64.8979408  21.4560000
 149.8669408  82.4849408  23.7190000 150.5199408  82.0109408  23.2050000
 149.1229408  82.5889408  23.1250000 142.9719408  89.7709408   6.6800000
 142.3179408  90.1079408   7.2920000 143.6439408  89.3789408   7.2390000
 132.1399408  67.4559408  12.2220000 133.0799408  67.4309408  12.0430000
 131.9669408  66.6499408  12.7080000 142.2569408  72.3619408  11.4830000
 141.7519408  73.1539408  11.2990000 142.2079408  71.8529408  10.6740000
 147.9939408  68.9349408  18.7130000 148.8849408  68.7869408  19.0320000
 147.4419408  68.4079408  19.2910000 145.9349408  81.0989408  28.9360000
 145.4299408  81.0179408  28.1280000 146.4369408  81.9069408  28.8260000
 122.6369408  68.9269408   8.6340000 123.0599408  69.1289408   9.4690000
 121.7709408  69.3279408   8.7010000 121.9669408  68.2519408  18.4270000
 122.8179408  68.6559408  18.5950000 121.4089408  68.5619408  19.1400000
 147.5039408  65.9579408  12.6760000 147.6349408  65.1329408  12.2080000
 147.4329408  66.6169408  11.9850000 126.0659408  63.5049408   3.3350000
 125.7129408  64.3689408   3.5490000 125.3759408  63.0859408   2.8200000
 140.1629408  63.2489408   7.1740000 140.7889408  62.6829408   7.6270000
 139.4289408  63.3299408   7.7820000 136.8479408  89.6619408  10.6200000
 136.3209408  89.0759408  11.1630000 136.2789408  89.8849408   9.8840000
 125.8869408  70.2809408   5.3640000 125.6359408  70.8369408   6.1020000
 125.8729408  70.8659408   4.6070000 142.0509408  87.8479408  21.3780000
 142.2919408  87.3129408  20.6220000 142.4079408  88.7149408  21.1820000
 146.0049408  88.4509408  20.5770000 145.3879408  87.8689408  20.1320000
 145.6789408  89.3319408  20.3920000 135.9519408  75.9449408   0.6750000
 135.0699408  75.6069408   0.8280000 136.3909408  75.2529408   0.1800000
 142.1649408  67.7679408   8.6350000 143.0789408  67.4839408   8.6030000
 142.1279408  68.5239408   8.0490000 144.3869408  70.8979408   7.2380000
 144.6949408  71.3449408   8.0260000 145.0989408  71.0059408   6.6070000
 140.4669408  87.5979408  16.5020000 140.0149408  88.4079408  16.7400000
 139.9129408  86.9009408  16.8520000 137.1799408  84.4859408  11.5940000
 137.1339408  84.0919408  10.7230000 137.8769408  85.1389408  11.5260000
 147.1109408  67.9229408  10.7590000 146.6699408  68.6599408  11.1820000
 147.2859408  68.2279408   9.8680000 144.4309408  68.2329408   0.1660000
 144.9999408  68.8329408  -0.3160000 144.9499408  67.9689408   0.9260000
 147.6649408  77.8339408  20.4340000 147.0099408  77.9209408  21.1270000
 147.7929408  78.7259408  20.1110000 140.4459408  65.7249408   5.9510000
 140.6899408  64.9389408   6.4390000 141.2809408  66.0999408   5.6680000
 124.0989408  77.2339408  20.9040000 123.5579408  77.6299408  20.2210000
 124.7849408  77.8809408  21.0720000 143.0409408  85.6989408   7.7480000
 142.2169408  86.1149408   7.4950000 143.0589408  84.8799408   7.2530000
 135.0709408  63.1099408  11.9730000 135.9309408  62.7019408  11.8700000
 134.5769408  62.4959408  12.5170000 121.2549408  66.8109408  14.1630000
 120.3669408  66.7379408  14.5100000 121.5479408  67.6809408  14.4330000
 121.2039408  78.3319408   8.1590000 121.7869408  78.4599408   8.9080000
 120.4139408  77.9419408   8.5330000 130.8509408  78.0429408  20.5640000
 131.5169408  77.8769408  19.8970000 130.6929408  77.1879408  20.9640000
 145.3289408  73.5029408  11.5810000 145.0329408  74.2309408  12.1270000
 146.1189408  73.1829408  12.0170000 147.1119408  87.8559408  14.3000000
 146.6299408  87.3489408  14.9530000 148.0099408  87.8809408  14.6300000
 144.7879408  62.1149408   5.8990000 144.1839408  61.3719408   5.9120000
 145.6579408  61.7159408   5.9040000 139.4179408  75.1679408  16.0930000
 140.2329408  74.6729408  16.0060000 139.6999408  76.0539408  16.3210000
 147.7659408  73.5989408   3.8470000 147.7389408  73.8419408   4.7720000
 147.9009408  74.4269408   3.3850000 125.1689408  74.5189408  16.3780000
 125.8409408  74.4369408  17.0540000 124.4199408  74.9079408  16.8290000
 142.8469408  74.3839408  29.2860000 143.0729408  75.2939408  29.4810000
 142.3399408  74.4319408  28.4760000 144.5049408  63.7859408   8.3370000
 144.6659408  63.1259408   7.6630000 145.3689408  63.9629408   8.7110000
 147.8919408  75.9599408   1.8140000 147.0629408  75.4949408   1.6950000
 148.2699408  76.0039408   0.9360000 141.4209408  65.9589408  13.7260000
 140.7449408  66.4539408  13.2630000 142.0389408  65.6999408  13.0420000
 124.4059408  70.8699408   1.0480000 123.6999408  71.4429408   1.3470000
 125.1239408  71.0339408   1.6600000 137.9489408  77.1749408  11.2960000
 137.9059408  76.2389408  11.0990000 138.8179408  77.2979408  11.6800000
 145.4809408  71.9639408   9.4060000 145.1199408  72.5119408  10.1030000
 146.2799408  71.5939408   9.7810000 147.2379408  64.9699408   8.0610000
 147.3909408  65.8909408   8.2740000 147.5609408  64.8749408   7.1650000
 144.1389408  68.9709408  24.3760000 143.4629408  68.4299408  23.9690000
 144.9209408  68.4189408  24.3760000 136.7859408  78.4209408   1.6810000
 136.7219408  77.5299408   1.3370000 137.4129408  78.8559408   1.1040000
 142.8489408  73.5719408  19.9600000 143.5609408  73.2709408  19.3950000
 142.1069408  73.0129408  19.7290000 143.2589408  60.4689408  14.2250000
 143.7039408  59.7619408  13.7580000 143.9489408  61.1049408  14.4120000
 128.5139408  78.9249408   4.6940000 128.4449408  77.9949408   4.9100000
 127.8739408  79.0569408   3.9950000 120.9149408  72.1979408   3.5130000
 120.7669408  72.8599408   2.8380000 120.2449408  71.5339408   3.3490000
 136.2619408  65.6629408  11.8050000 137.1559408  65.3529408  11.9450000
 135.7269408  64.8699408  11.8260000 145.2609408  62.5219408  15.1500000
 146.1599408  62.1979408  15.2140000 145.1129408  62.6349408  14.2110000
 146.0369408  69.7699408  12.4210000 146.3529408  69.1019408  13.0300000
 145.0999408  69.8379408  12.6050000 143.0209408  68.4339408   3.5050000
 143.2149408  69.3699408   3.4500000 143.4379408  68.1499408   4.3190000
 138.3969408  61.7669408   4.5070000 138.1719408  61.0319408   5.0770000
 139.3529408  61.8069408   4.5340000 147.9889408  69.2129408  25.4190000
 148.5799408  69.2639408  26.1700000 147.4759408  70.0199408  25.4620000
 149.4079408  80.4649408  12.4830000 148.5159408  80.4729408  12.8300000
 149.2959408  80.4509408  11.5330000 139.9099408  68.3669408  10.0660000
 139.9099408  69.2509408   9.6990000 140.6139408  67.9149408   9.6030000
 142.6919408  71.3699408  26.1520000 142.7639408  70.5559408  25.6530000
 143.5839408  71.5479408  26.4510000 142.3429408  77.8229408  13.7280000
 142.4789408  78.5569408  14.3260000 141.4959408  77.9999408  13.3180000
 138.5539408  78.9259408  24.6820000 138.7939408  78.2999408  25.3660000
 139.3529408  79.4279408  24.5250000 120.9789408  71.7839408   6.4660000
 120.8059408  71.5689408   5.5490000 120.8379408  70.9619408   6.9360000
 138.5449408  66.2349408   8.9460000 138.6869408  66.3049408   8.0020000
 138.8589408  67.0669408   9.2990000 137.5829408  62.1169408  11.6990000
 137.5359408  61.9249408  12.6360000 137.4419408  61.2719408  11.2740000
 143.0879408  66.0449408   2.2860000 143.1179408  66.9629408   2.5550000
 142.5769408  66.0479408   1.4770000 139.4299408  89.0179408   0.8690000
 140.3869408  89.0099408   0.8630000 139.1899408  88.4979408   1.6360000
 143.0929408  64.5809408  26.6170000 143.7929408  64.1529408  26.1250000
 142.4559408  64.8409408  25.9520000 149.4029408  81.3029408  16.8030000
 149.1189408  82.1149408  16.3830000 150.2919408  81.4879408  17.1050000
 127.9229408  60.9289408   7.0610000 128.3859408  61.4039408   7.7510000
 127.6119408  61.6119408   6.4670000 146.0629408  66.2019408   2.8730000
 146.7759408  66.4759408   2.2960000 145.4759408  65.7009408   2.3070000
 145.4119408  80.8149408   1.5320000 145.4999408  80.9999408   0.5970000
 146.2239408  80.3649408   1.7650000 148.3659408  65.4669408  19.3010000
 148.8039408  65.9929408  18.6320000 148.0599408  64.6899408  18.8330000
 133.7059408  60.8079408  28.7940000 132.8089408  60.6749408  29.0990000
 134.2449408  60.6919408  29.5770000 140.9419408  64.3839408  17.7550000
 140.5819408  63.9059408  17.0080000 141.5239408  65.0359408  17.3640000
 149.4049408  69.7769408   1.2160000 149.7829408  69.6169408   0.3520000
 148.8879408  68.9919408   1.4010000 143.8139408  76.7889408  29.7140000
 143.7769408  77.3819408  30.4640000 144.6549408  76.9789408  29.2980000
 141.4199408  73.2069408  24.2540000 141.6209408  72.3409408  24.6100000
 141.2789408  73.0559408  23.3200000 144.3839408  76.4509408  26.5200000
 144.4989408  77.3369408  26.1780000 144.0379408  76.5779408  27.4040000
 149.1759408  70.3779408  22.4850000 148.2839408  70.5879408  22.2080000
 149.0939408  70.1619408  23.4140000 147.5159408  71.6489408  18.8270000
 147.5849408  70.6959408  18.7670000 147.6049408  71.8379408  19.7610000
 148.1189408  73.0759408  23.9840000 148.7619408  72.6759408  24.5710000
 147.4529408  73.4369408  24.5690000 144.1129408  61.7349408  28.1150000
 144.7809408  61.4299408  27.5010000 144.4059408  62.6089408  28.3730000
 141.7639408  73.3609408   2.3840000 141.7739408  73.7069408   1.4920000
 140.9559408  72.8499408   2.4340000 120.6829408  64.4809408  26.5800000
 120.8219408  64.3349408  25.6450000 120.8769408  65.4089408  26.7100000
 148.0309408  85.7699408   0.2010000 147.6519408  86.3839408  -0.4290000
 148.7909408  86.2309408   0.5560000 122.9169408  70.2559408  22.9200000
 122.3259408  70.8239408  22.4250000 123.4999408  70.8599408  23.3800000
 141.1939408  64.9999408  24.4080000 140.3499408  65.2639408  24.7730000
 141.2559408  64.0639408  24.5980000 146.5439408  65.5789408  25.9390000
 145.8209408  64.9659408  25.8060000 147.3229408  65.0939408  25.6660000
 148.7599408  88.1839408   3.0480000 148.8759408  87.2849408   3.3560000
 149.4779408  88.3219408   2.4310000 122.6489408  67.0719408  23.3300000
 122.9159408  67.8839408  22.8980000 122.1039408  66.6239408  22.6820000
 142.4329408  84.4709408   0.8190000 141.6569408  84.3989408   1.3750000
 142.5059408  83.6149408   0.3970000 147.0089408  67.7539408  20.9100000
 147.1639408  67.5669408  21.8360000 146.1749408  67.3249408  20.7160000
 123.2349408  78.6979408  24.7910000 122.6099408  77.9739408  24.8150000
 124.0829408  78.2909408  24.9680000 139.5569408  79.2589408   4.7920000
 139.8279408  78.5009408   4.2750000 139.5719408  79.9889408   4.1730000
 146.9399408  70.5709408   5.5480000 147.2969408  71.4359408   5.7460000
 147.5429408  70.2049408   4.9000000 142.1869408  67.3489408  23.2340000
 142.6329408  67.2299408  22.3960000 141.9849408  66.4599408  23.5270000
 143.0549408  86.8219408  15.9560000 142.1179408  86.8199408  16.1500000
 143.1779408  86.0819408  15.3610000 146.0829408  74.9759408  22.9120000
 146.8299408  74.5689408  22.4730000 146.1679408  74.7089408  23.8270000
 121.7139408  64.7479408   4.2270000 121.3929408  64.3309408   3.4270000
 121.0859408  64.4889408   4.9010000 146.7119408  88.8939408   1.2240000
 147.5319408  88.5429408   1.5710000 146.3319408  89.3829408   1.9540000
 144.2559408  83.5429408  18.3680000 144.2759408  82.7569408  18.9150000
 145.1489408  83.6239408  18.0320000 147.4089408  88.0439408  28.3580000
 146.8659408  88.5749408  28.9420000 148.0689408  88.6529408  28.0260000
 144.1759408  78.5089408   1.7660000 144.5339408  79.3739408   1.5650000
 144.8279408  78.1069408   2.3410000 145.2449408  75.1359408  19.2390000
 144.6809408  75.3399408  19.9860000 145.0279408  75.8009408  18.5860000
 147.8889408  62.9389408   0.7890000 147.1389408  62.3659408   0.9500000
 147.5709408  63.8159408   1.0000000 137.5889408  65.9449408  21.8650000
 137.9269408  65.0509408  21.9150000 138.2399408  66.4199408  21.3480000
 138.6329408  63.7929408  27.6990000 139.4459408  63.2949408  27.6140000
 138.5859408  64.0199408  28.6280000 149.2179408  71.7099408  26.2810000
 149.3859408  71.1539408  27.0420000 149.5759408  72.5639408  26.5240000
 140.0679408  66.6019408  20.6770000 140.4109408  65.7399408  20.4420000
 140.8469408  67.1369408  20.8290000 149.4139408  63.1659408  16.0720000
 149.2369408  62.3849408  16.5970000 148.9069408  63.8589408  16.4960000
 146.1419408  72.3979408  27.6270000 145.4329408  72.2329408  28.2480000
 146.9029408  72.5879408  28.1750000 137.8799408  67.6249408  24.1220000
 137.7579408  66.6759408  24.0920000 137.0159408  67.9709408  24.3480000
 141.5639408  75.6829408  25.4200000 142.2419408  75.5029408  26.0710000
 141.3869408  74.8329408  25.0160000 149.8499408  62.5939408  28.7080000
 149.3119408  62.9239408  29.4270000 149.7199408  63.2259408  28.0010000
 144.0009408  64.7069408   5.0710000 143.8849408  64.5229408   4.1390000
 144.2479408  63.8649408   5.4530000 148.6979408  64.9809408  23.9730000
 149.2289408  65.6649408  24.3820000 149.2709408  64.2149408  23.9480000
 122.5169408  63.7909408  28.9940000 122.3399408  64.7299408  29.0370000
 122.0049408  63.4829408  28.2460000 129.8899408  71.8059408  17.1790000
 130.2009408  71.2239408  17.8720000 130.1229408  71.3559408  16.3660000
 140.0029408  69.2039408  23.4090000 140.8009408  68.6759408  23.4560000
 139.3039408  68.6049408  23.6730000 143.6059408  72.7209408  14.1930000
 143.3069408  72.6279408  13.2890000 143.8659408  73.6389408  14.2670000
 141.9269408  78.4589408  27.4240000 141.6859408  79.2179408  27.9550000
 141.2059408  77.8409408  27.5460000 140.6599408  80.6539408  28.5530000
 140.8069408  80.9329408  29.4560000 140.5649408  81.4699408  28.0610000
 143.0969408  67.0939408  20.7320000 143.5719408  67.7899408  20.2780000
 143.5829408  66.2959408  20.5220000 120.1209408  67.1739408  25.0360000
 121.0009408  67.3079408  24.6820000 119.6779408  68.0119408  24.9010000
 141.2829408  64.2129408  10.2370000 142.1709408  64.4309408  10.5200000
 140.9569408  65.0169408   9.8310000 125.2779408  71.5559408   7.5480000
 124.8449408  70.9229408   8.1220000 125.5749408  72.2489408   8.1370000
 126.0519408  66.0389408  12.9900000 126.7619408  65.9259408  12.3580000
 125.9799408  66.9859408  13.1040000 145.8779408  74.2189408  25.3820000
 145.9199408  73.5969408  26.1090000 145.3539408  74.9449408  25.7190000
 146.9689408  86.1229408  22.1750000 147.8909408  86.2139408  22.4190000
 146.8059408  86.8519408  21.5770000 120.5089408  69.7659408  13.8980000
 119.8269408  69.7809408  14.5700000 120.2249408  69.0889408  13.2830000
 142.0069408  73.9469408  16.1180000 142.6479408  73.3789408  15.6900000
 142.4899408  74.3509408  16.8390000 141.3509408  83.5839408  27.1550000
 142.0519408  84.1379408  26.8110000 140.8199408  84.1729408  27.6900000
 123.1369408  75.9089408  17.4420000 123.2879408  76.7359408  17.8990000
 122.3239408  76.0479408  16.9560000 144.1139408  63.7159408  21.1230000
 144.5879408  64.4759408  20.7840000 144.5419408  63.5189408  21.9560000
 133.7419408  66.4529408  15.6390000 134.2449408  66.8479408  14.9270000
 133.4279408  67.1979408  16.1520000 148.1879408  72.5169408  29.3490000
 149.0379408  72.9559408  29.3450000 148.2049408  71.9679408  30.1330000
 123.9139408  74.3159408  20.0960000 123.3239408  75.0459408  20.2810000
 123.8699408  74.2069408  19.1460000 139.3529408  69.0949408  19.9650000
 138.9699408  69.8979408  20.3180000 139.1119408  68.4159408  20.5960000
 137.2159408  62.2419408  14.2630000 137.4569408  61.6839408  15.0030000
 136.9959408  63.0849408  14.6600000 126.1759408  63.6459408  23.8610000
 127.0319408  63.4339408  24.2340000 125.6269408  63.8449408  24.6190000
 122.0539408  72.5049408  21.6720000 122.7779408  73.0489408  21.3630000
 121.3189408  72.7389408  21.1060000 147.4739408  68.2959408   7.3770000
 147.0789408  69.0559408   6.9490000 147.4529408  67.6089408   6.7110000
 124.6389408  68.2059408   0.3610000 124.5499408  69.1419408   0.5400000
 125.5799408  68.0399408   0.4160000 123.5789408  65.2939408  14.7230000
 124.2869408  65.7469408  14.2640000 122.8469408  65.9109408  14.7040000
 134.3679408  68.5949408  20.4910000 134.4269408  69.5469408  20.5680000
 134.3979408  68.4279408  19.5490000 139.6399408  77.0629408  21.6660000
 140.2749408  77.2579408  22.3550000 139.4069408  77.9179408  21.3040000
 147.1349408  72.3819408  21.4320000 146.3539408  71.8949408  21.6950000
 147.7049408  72.3559408  22.2000000 121.7099408  64.5589408  17.3620000
 121.2679408  64.1129408  16.6390000 121.0809408  65.2169408  17.6580000
 123.7859408  63.1389408   5.5410000 124.7399408  63.2159408   5.5740000
 123.5029408  63.8839408   5.0110000 142.3099408  70.3559408  21.7640000
 141.7209408  71.1059408  21.6740000 141.7629408  69.6659408  22.1410000
 148.6129408  80.5529408  20.3810000 149.2029408  80.8629408  21.0670000
 148.5069408  81.3039408  19.7970000 138.5159408  85.7009408   0.7170000
 138.6129408  86.6029408   1.0230000 139.1969408  85.5999408   0.0510000
 144.3199408  75.3179408  13.4330000 143.7379408  76.0469408  13.2200000
 144.8819408  75.6559408  14.1310000 142.5469408  75.5769408   4.2880000
 141.8889408  76.0879408   3.8160000 142.4899408  74.7009408   3.9070000
 139.5539408  60.0589408  17.2370000 139.8519408  60.3489408  16.3750000
 138.6799408  60.4369408  17.3290000 144.5779408  86.1839408  19.7680000
 145.3119408  85.7339408  19.3490000 143.8019408  85.8429408  19.3220000
 141.9709408  89.7309408   4.2900000 141.4919408  90.5529408   4.3860000
 142.2929408  89.5359408   5.1700000 139.7779408  83.9979408  13.5600000
 140.2779408  84.1409408  12.7560000 140.3799408  83.5269408  14.1360000
 136.2369408  62.5929408   7.0360000 136.4979408  61.7169408   6.7530000
 137.0569408  63.0199408   7.2820000 137.8549408  63.6489408   8.8230000
 138.0219408  64.5789408   8.9790000 137.6949408  63.2839408   9.6930000
 141.6989408  60.0119408  19.4060000 142.3109408  59.7979408  18.7010000
 140.9559408  60.4209408  18.9620000 147.1489408  81.4149408   8.1260000
 147.0169408  81.9989408   8.8730000 146.3659408  80.8649408   8.1090000
 141.1139408  62.1109408   4.7390000 141.1109408  62.6599408   5.5240000
 141.5609408  62.6399408   4.0780000 142.0079408  70.1399408  16.2200000
 141.9829408  70.3189408  15.2790000 142.8879408  69.7949408  16.3750000
 136.6089408  78.0909408  13.3550000 136.7289408  77.5009408  12.6110000
 137.4469408  78.5439408  13.4390000 147.8639408  77.4319408   9.3610000
 147.7469408  77.2979408  10.3010000 148.3079408  78.2779408   9.2930000
 121.0329408  85.6039408  13.9710000 120.2089408  85.2399408  14.2930000
 121.2309408  85.0919408  13.1870000 121.1559408  78.4609408  20.0400000
 120.2709408  78.7809408  19.8660000 121.0349408  77.5459408  20.2950000
 122.0799408  88.3339408   3.5080000 121.6479408  88.7749408   2.7770000
 122.4669408  89.0439408   4.0210000 137.4589408  79.6149408   6.9330000
 136.5709408  79.2699408   7.0270000 137.7209408  79.3639408   6.0470000
 145.5019408  85.3549408  28.7860000 146.3499408  84.9159408  28.7100000
 145.0439408  85.1329408  27.9750000 146.6749408  77.5639408  13.5590000
 146.2789408  77.7839408  14.4030000 146.8119408  76.6169408  13.5990000
 139.9319408  83.5469408   5.4520000 139.4589408  82.7149408   5.4690000
 140.8459408  83.3059408   5.6030000 143.0439408  81.6259408  13.4910000
 142.5689408  81.6099408  12.6600000 143.9519408  81.4399408  13.2520000
 141.5259408  87.0239408   3.9340000 141.8329408  86.7029408   3.0860000
 141.8009408  87.9409408   3.9570000 142.5659408  83.1829408   6.2490000
 142.5139408  82.3989408   6.7960000 143.4839408  83.2299408   5.9820000
 122.7359408  83.2419408  21.7040000 122.8889408  83.6109408  20.8350000
 122.5469408  83.9999408  22.2570000 145.2289408  63.2469408  12.4100000
 144.8559408  62.6399408  11.7710000 146.0849408  63.4789408  12.0500000
 123.0529408  86.7679408  15.5720000 122.4119408  86.2939408  15.0430000
 123.1159408  87.6289408  15.1590000 144.1119408  81.8259408   3.7350000
 144.7569408  82.4489408   4.0690000 144.4369408  81.5849408   2.8680000
 145.3229408  76.5199408   3.7300000 145.4299408  75.8639408   3.0410000
 144.4889408  76.2979408   4.1450000 145.6729408  80.8899408  23.2500000
 145.9379408  81.6929408  22.8020000 145.0279408  80.4909408  22.6670000
 148.0719408  75.0429408  14.1250000 148.3279408  74.1539408  13.8810000
 148.7059408  75.6059408  13.6790000 141.4969408  77.6769408   8.9910000
 140.6869408  77.9649408   9.4120000 141.2069408  77.1699408   8.2330000
 141.3089408  81.2979408  10.9070000 140.3719408  81.3809408  11.0840000
 141.3559408  80.9219408  10.0280000 139.9409408  85.9629408  28.3800000
 139.0549408  86.3189408  28.3170000 140.3819408  86.2749408  27.5900000
 142.7679408  79.3119408  17.3790000 142.3009408  80.0629408  17.0110000
 143.4259408  79.6989408  17.9570000 139.7129408  81.5399408   7.5910000
 139.1179408  80.8719408   7.2500000 140.5109408  81.0599408   7.8100000
 143.7039408  77.7479408  10.5130000 144.1529408  76.9339408  10.2860000
 142.9529408  77.7799408   9.9200000 147.4709408  85.8359408   6.5070000
 147.7579408  84.9329408   6.6370000 147.3959408  85.9299408   5.5570000
 147.1539408  85.2229408  18.8610000 147.2309408  84.5909408  18.1470000
 147.9429408  85.7599408  18.7930000 148.9979408  75.2499408  17.3840000
 148.6679408  75.0439408  18.2580000 148.5579408  74.6249408  16.8080000
 137.0249408  82.7099408  17.6690000 136.8809408  82.0149408  17.0260000
 136.7759408  83.5139408  17.2140000 145.5159408  62.1409408   2.2740000
 144.6969408  62.6339408   2.2290000 145.2789408  61.3189408   2.7030000
 147.8379408  76.4779408   4.9610000 147.1649408  76.4449408   4.2810000
 148.2269408  77.3489408   4.8720000 138.1619408  71.4479408  18.1310000
 138.1129408  71.6889408  19.0560000 139.0279408  71.7449408  17.8520000
 131.7949408  64.1809408  15.4660000 131.0579408  64.3869408  16.0420000
 132.4969408  64.7619408  15.7580000 144.6279408  89.7129408   3.2650000
 143.6809408  89.5999408   3.3410000 144.9819408  89.3039408   4.0550000
 144.1549408  88.4689408   8.6710000 144.9869408  87.9959408   8.6860000
 143.5239408  87.8559408   9.0480000 147.6299408  88.3429408   7.5860000
 147.5669408  87.3909408   7.5050000 147.5549408  88.5079408   8.5260000
 146.7179408  83.2369408  17.1170000 147.0469408  83.5299408  16.2670000
 146.4409408  82.3329408  16.9690000 148.6429408  83.4169408   2.1320000
 149.5469408  83.7219408   2.2000000 148.2299408  84.0239408   1.5180000
 138.1019408  89.3339408  13.8490000 138.8249408  89.9569408  13.9170000
 138.5209408  88.5029408  13.6270000 120.8829408  75.8929408  20.9960000
 121.0199408  75.6469408  21.9110000 120.0429408  75.4959408  20.7640000
 149.7119408  87.0349408  18.1520000 149.5509408  87.4989408  17.3300000
 149.2639408  87.5589408  18.8150000 127.1339408  83.6299408  17.5170000
 126.9599408  84.4419408  17.0430000 127.4829408  83.0339408  16.8540000
 124.8129408  80.6049408  20.3340000 124.8989408  81.5329408  20.5520000
 124.8869408  80.1529408  21.1740000 145.3029408  86.0099408  11.7730000
 145.0519408  85.5969408  10.9470000 144.6769408  86.7259408  11.8830000
 135.4609408  83.4619408   3.0360000 135.9439408  83.2799408   2.2300000
 135.3659408  82.6069408   3.4560000 133.5109408  87.9189408  15.3630000
 134.4469408  87.8499408  15.5500000 133.2639408  87.0499408  15.0470000
 145.1669408  85.1589408   1.8110000 144.2559408  84.8679408   1.8270000
 145.3879408  85.2049408   0.8810000 141.1539408  87.1659408   6.5480000
 141.4189408  86.9389408   5.6570000 141.5359408  88.0299408   6.7000000
 136.0469408  64.5639408  15.7710000 136.0809408  64.5099408  16.7260000
 135.4529408  65.2939408  15.5940000 122.8799408  87.4629408  12.2670000
 122.0239408  87.0379408  12.2150000 123.2679408  87.3299408  11.4030000
 148.6919408  79.2009408   3.8620000 149.5599408  78.8229408   3.7170000
 148.1619408  78.8679408   3.1380000 147.3199408  78.8899408   1.5420000
 147.8129408  79.1749408   0.7720000 147.3469408  77.9339408   1.5040000
 120.1709408  85.8719408   3.6420000 120.6029408  85.3299408   2.9810000
 120.8439408  86.4929408   3.9200000 141.9069408  80.2649408   8.2860000
 141.7919408  79.3209408   8.3890000 142.4119408  80.3589408   7.4790000
 140.8209408  85.7819408  11.5460000 140.6039408  85.9449408  10.6280000
 140.7959408  86.6459408  11.9560000 147.3569408  61.1799408   6.2670000
 147.6309408  61.6629408   5.4870000 148.0139408  60.4909408   6.3660000
 138.4929408  80.8929408  11.3400000 138.2899408  80.2629408  10.6490000
 137.8709408  81.6069408  11.2050000 147.5929408  88.9229408  10.4380000
 147.4519408  89.3709408  11.2720000 148.5019408  88.6269408  10.4740000
 129.8979408  88.3239408  17.5680000 130.5479408  87.6229408  17.5210000
 129.0609408  87.8869408  17.4100000 149.5049408  69.6089408   3.9390000
 149.2369408  69.4409408   3.0360000 150.3389408  69.1489408   4.0320000
 144.9399408  88.5519408  12.8940000 145.6679408  88.0659408  13.2810000
 145.3499408  89.3119408  12.4820000 146.2609408  80.5759408  16.5330000
 145.9599408  79.7359408  16.1870000 147.1519408  80.4039408  16.8380000
 120.9209408  89.9589408   9.9480000 121.4189408  89.3979408   9.3520000
 120.0779408  90.0829408   9.5120000 120.1289408  60.2789408   6.1440000
 120.1339408  60.2069408   5.1890000 120.6739408  59.5509408   6.4420000
 140.1059408  86.3139408   8.9570000 140.3829408  86.3689408   8.0430000
 139.8789408  87.2129408   9.1940000 143.6379408  89.1839408  27.3740000
 143.8629408  88.6559408  28.1400000 143.7149408  90.0889408  27.6760000
 137.8029408  61.4979408   2.0150000 137.8179408  61.3079408   2.9530000
 137.9959408  60.6579408   1.5970000 141.2849408  81.4409408   3.2030000
 142.1909408  81.6019408   3.4660000 140.9289408  82.3109408   3.0260000
 144.8339408  78.1349408  15.5300000 145.1179408  77.2749408  15.8380000
 144.2629408  78.4619408  16.2250000 145.9399408  83.0769408  10.1740000
 145.0409408  82.8989408  10.4490000 145.8779408  83.8789408   9.6550000
 127.8459408  64.6539408  28.8310000 128.2209408  64.7389408  29.7070000
 127.3629408  63.8279408  28.8550000 120.5509408  83.0329408   8.3860000
 120.1859408  83.4379408   7.6000000 119.8569408  83.1109408   9.0410000
 141.0919408  62.8469408  27.7180000 141.6289408  62.2659408  28.2570000
 141.7059408  63.5029408  27.3870000 139.0939408  85.2559408  17.6310000
 138.8449408  85.5209408  18.5160000 138.5189408  84.5169408  17.4310000
 144.6889408  86.4959408  23.9890000 145.4609408  86.4079408  23.4300000
 144.0209408  85.9579408  23.5630000 139.7889408  87.3129408  23.2930000
 140.5389408  87.1429408  22.7230000 139.6029408  88.2449408  23.1720000
 146.0789408  88.6559408   5.3270000 146.5179408  88.9459408   6.1270000
 146.5309408  87.8469408   5.0860000 141.9989408  87.5469408   1.0180000
 142.9239408  87.6119408   0.7810000 141.7279408  86.6889408   0.6910000
 137.6129408  80.7449408   3.2240000 137.4149408  79.8939408   2.8320000
 137.7729408  81.3209408   2.4770000 148.7029408  83.2359408  20.3090000
 149.5569408  83.6369408  20.1500000 148.0819408  83.8059408  19.8540000
 139.1839408  82.3919408  19.3730000 138.8759408  82.0519408  20.2130000
 138.3959408  82.4469408  18.8330000 148.9259408  79.3549408  29.1130000
 148.4939408  79.0299408  28.3230000 149.7449408  78.8629408  29.1590000
 142.4529408  82.8319408  24.3870000 143.2899408  83.2969408  24.4070000
 141.9209408  83.3219408  23.7600000 149.3329408  80.1069408   9.6110000
 150.1389408  80.5079408   9.2850000 148.7129408  80.1949408   8.8870000
 149.7389408  61.2499408  22.7270000 149.9719408  60.5979408  22.0660000
 148.7969408  61.1349408  22.8560000 146.4009408  70.1289408  29.6700000
 146.3809408  70.6799408  30.4520000 146.2529408  70.7369408  28.9450000
 149.0999408  86.4319408  25.9860000 148.5239408  86.4859408  26.7480000
 148.5919408  85.9469408  25.3350000 147.4289408  84.6289408  24.5640000
 146.6139408  84.5409408  24.0710000 147.3679408  83.9629408  25.2490000
 146.4519408  78.2429408  23.9800000 146.5979408  79.0739408  23.5290000
 145.5169408  78.0689408  23.8690000 146.6279408  65.1689408  30.1560000
 145.8039408  64.7719408  29.8740000 146.6229408  66.0389408  29.7570000
 143.8769408  81.7659408  27.1800000 144.5629408  82.2469408  26.7180000
 143.0929408  82.3049408  27.0720000 148.0669408  75.0089408  20.1910000
 148.0739408  75.9439408  19.9830000 147.1889408  74.8459408  20.5340000
 146.0639408  77.5379408  28.8710000 146.7539408  76.9079408  28.6660000
 146.4249408  78.3839408  28.6060000 149.9059408  88.0329408  21.8660000
 149.3759408  88.3819408  22.5830000 150.0419408  87.1129408  22.0930000
 147.5559408  83.3009408  28.4550000 148.1949408  83.8009408  28.9620000
 148.0589408  82.9369408  27.7270000 147.8099408  77.9179408  26.6380000
 147.3599408  78.3039408  25.8870000 147.8709408  76.9859408  26.4280000
 140.8229408  80.4389408  24.5460000 141.4419408  81.1659408  24.6110000
 140.8099408  80.2179408  23.6140000 146.1169408  60.6769408  26.5390000
 145.8869408  60.0879408  25.8210000 146.9099408  60.2969408  26.9170000
 144.0979408  72.2559408  29.3850000 143.7049408  73.1289408  29.3770000
 143.3609408  71.6629408  29.5350000 123.7959408  62.6399408   1.5360000
 123.1589408  63.0979408   0.9870000 123.2689408  62.0539408   2.0780000
 149.0779408  82.0099408  26.4940000 149.7929408  81.5059408  26.8830000
 149.4689408  82.4279408  25.7270000 146.4579408  82.1029408  25.8250000
 147.2999408  81.6859408  26.0080000 146.1359408  81.6579408  25.0400000
 144.2699408  89.2149408  24.6630000 144.2869408  88.9489408  25.5820000
 144.4699408  88.4149408  24.1780000 139.3969408  82.8279408  25.2380000
 139.5079408  82.1059408  24.6190000 140.1119408  82.7199408  25.8640000
 140.7379408  63.9019408  20.2470000 140.8629408  63.9519408  19.3000000
 141.6089408  64.0529408  20.6130000 149.0199408  88.8129408  24.3330000
 149.8619408  89.1639408  24.6250000 148.8459408  88.0819408  24.9260000
 136.8359408  61.2099408  27.0900000 137.4759408  60.5949408  27.4500000
 137.1229408  62.0669408  27.4050000 146.1579408  86.4039408   3.9090000
 145.6669408  87.2129408   4.0520000 145.8099408  86.0549408   3.0890000
 137.0399408  88.4119408  24.8180000 137.5809408  88.5059408  25.6020000
 137.1749408  87.5059408  24.5410000 143.6199408  84.9529408  22.0760000
 142.8519408  84.5989408  21.6270000 144.1499408  85.3379408  21.3780000
 141.2529408  83.5169408  20.7880000 140.5179408  83.0819408  20.3570000
 140.8559408  83.9929408  21.5170000 144.4219408  69.4159408  20.1160000
 145.2529408  69.6309408  20.5400000 143.7539408  69.7569408  20.7110000
 122.7039408  81.1609408   0.5350000 121.8629408  81.6189408   0.5440000
 122.8899408  81.0209408  -0.3940000 138.5739408  86.5729408  19.9790000
 139.3969408  87.0059408  20.2050000 137.9349408  86.9379408  20.5900000
 143.9579408  61.6669408  23.3620000 143.0839408  61.9459408  23.6370000
 144.0009408  60.7409408  23.6010000 148.8059408  76.1259408  29.0390000
 149.4149408  76.8549408  28.9240000 149.3669408  75.3549408  29.1220000
 143.5929408  80.4459408   6.1030000 144.4549408  80.0469408   6.2220000
 143.6239408  80.8299408   5.2270000 141.0189408  81.9559408  17.3460000
 140.6409408  82.0609408  18.2200000 141.4569408  82.7889408  17.1720000
 149.3579408  66.4659408  21.7420000 148.9689408  66.1709408  20.9190000
 149.0259408  65.8529408  22.3980000 144.5659408  87.9129408  29.5880000
 144.9279408  87.0679408  29.3220000 145.1819408  88.2429408  30.2420000
 142.3159408  60.6029408   0.0200000 142.8489408  60.3259408   0.7650000
 142.9519408  60.8169408  -0.6630000 122.0639408  62.4419408  19.6400000
 122.0359408  63.1009408  18.9460000 121.3919408  61.8059408  19.3950000
 136.0279408  89.2599408  18.5900000 135.0909408  89.1729408  18.4130000
 136.1359408  88.9249408  19.4800000 140.3859408  84.2079408  23.2040000
 140.0829408  85.1069408  23.3300000 139.8389408  83.6859408  23.7910000
 120.8689408  66.2169408   0.9050000 121.1979408  66.6709408   0.1290000
 121.6129408  66.1979408   1.5060000 130.0009408  86.2329408  21.9690000
 130.8279408  85.7619408  22.0740000 130.2609408  87.1449408  21.8330000
 133.1139408  89.2469408  18.1040000 133.4209408  88.6579408  17.4150000
 132.3449408  89.6749408  17.7280000 141.2879408  65.2629408  59.9310000
 140.5409408  64.9539408  60.4440000 140.9199408  65.9259408  59.3470000
 141.1249408  61.1489408  51.7350000 140.9649408  60.2999408  51.3230000
 141.6349408  61.6379408  51.0890000 125.8789408  66.9689408  38.7010000
 125.4139408  66.1719408  38.4480000 125.9029408  67.4959408  37.9020000
 129.0639408  68.6819408  47.8260000 128.4579408  68.2489408  48.4280000
 129.3939408  67.9759408  47.2700000 131.2259408  71.3479408  35.7040000
 130.6419408  71.7979408  36.3140000 131.6789408  70.6969408  36.2400000
 137.4669408  75.2269408  47.9080000 137.9479408  75.1439408  48.7320000
 138.1319408  75.1079408  47.2300000 142.0799408  69.5039408  36.3360000
 141.9909408  69.7379408  35.4120000 142.7389408  70.1109408  36.6740000
 149.3079408  78.9599408  45.2020000 149.6479408  79.5329408  45.8900000
 149.8979408  79.0979408  44.4610000 122.5329408  67.1629408  58.8470000
 123.2739408  67.5749408  59.2930000 122.8629408  66.9599408  57.9720000
 148.0369408  65.5629408  35.5490000 147.0969408  65.6829408  35.4130000
 148.2159408  64.6789408  35.2300000 130.6849408  75.9839408  36.6650000
 131.1339408  76.8249408  36.7490000 129.8769408  76.0929408  37.1670000
 138.4319408  64.8569408  55.0460000 138.1149408  64.5139408  55.8810000
 138.3719408  64.1159408  54.4430000 148.7999408  69.9389408  45.7730000
 147.8609408  69.9999408  45.5990000 148.8569408  69.5959408  46.6650000
 136.9329408  82.0279408  43.3670000 137.2779408  82.9039408  43.1980000
 137.6629408  81.4399408  43.1730000 121.5889408  67.8679408  35.1380000
 121.9129408  67.0799408  34.7030000 122.3749408  68.2939408  35.4810000
 124.3779408  61.6949408  46.6380000 123.4469408  61.8319408  46.4640000
 124.7679408  61.5709408  45.7730000 136.9779408  74.3809408  58.3850000
 137.8199408  73.9829408  58.6060000 137.1409408  74.8459408  57.5640000
 131.0189408  62.1809408  48.1460000 130.7569408  63.1019408  48.1390000
 131.6919408  62.1279408  48.8240000 135.1549408  60.6799408  38.8720000
 134.7649408  61.4279408  38.4200000 135.0899408  59.9599408  38.2450000
 132.2769408  69.0759408  56.9600000 131.8759408  69.8269408  56.5240000
 132.9859408  69.4519408  57.4820000 148.5349408  75.5709408  37.6430000
 148.4489408  76.1489408  36.8850000 148.1879408  76.0809408  38.3750000
 128.3539408  66.3839408  33.5020000 129.0179408  66.9059408  33.0520000
 127.9879408  66.9769408  34.1590000 144.3849408  69.4109408  47.3650000
 144.7209408  68.5179408  47.2950000 144.2909408  69.5589408  48.3060000
 127.7939408  73.7699408  37.0920000 127.1589408  73.5089408  37.7590000
 128.3649408  73.0079408  36.9930000 129.0859408  62.8069408  42.3010000
 129.2659408  63.2629408  41.4790000 129.7729408  63.1059408  42.8980000
 142.4549408  63.6049408  32.6640000 141.6819408  63.5749408  32.1000000
 142.7979408  64.4919408  32.5530000 141.2289408  80.5009408  44.9470000
 140.8759408  81.0379408  45.6570000 141.9479408  81.0209408  44.5870000
 127.2079408  68.2029408  59.8520000 127.3599408  68.7419408  60.6280000
 128.0649408  68.1409408  59.4310000 124.6869408  63.6109408  42.3470000
 123.8339408  63.9499408  42.0730000 125.2309408  64.3909408  42.4540000
 133.1469408  72.3189408  57.0580000 133.5739408  72.0469408  56.2450000
 133.8619408  72.4039408  57.6880000 135.5709408  64.5019408  53.2080000
 136.1229408  65.1429408  52.7600000 135.2669408  63.9189408  52.5130000
 131.9419408  64.9309408  48.4310000 132.8109408  65.3169408  48.3240000
 131.7659408  64.9919408  49.3700000 129.3909408  65.9979408  43.5600000
 128.4679408  65.8209408  43.7410000 129.5449408  65.6099408  42.6990000
 132.7269408  64.7419408  43.0350000 133.5559408  64.2759408  42.9230000
 132.3699408  64.4009408  43.8560000 131.2779408  68.6519408  39.3500000
 131.3409408  67.9429408  39.9910000 130.6729408  69.2789408  39.7440000
 126.0069408  60.8799408  34.4630000 126.8559408  60.4709408  34.2940000
 126.1609408  61.8149408  34.3310000 129.4119408  68.7209408  36.5640000
 129.9009408  68.4549408  37.3430000 130.0189408  69.2819408  36.0810000
 129.0729408  70.0809408  39.9790000 129.3089408  70.3209408  40.8750000
 128.1399408  69.8699408  40.0250000 132.1909408  63.0269408  36.6490000
 132.5829408  63.5069408  37.3790000 132.8259408  62.3399408  36.4440000
 122.7639408  70.3209408  45.9390000 122.1979408  70.7929408  45.3280000
 122.1579408  69.8679408  46.5260000 123.7929408  65.9289408  48.5460000
 124.5359408  65.3939408  48.2680000 123.0419408  65.5539408  48.0850000
 127.2649408  65.4869408  40.7700000 126.6499408  66.0649408  40.3180000
 127.6409408  64.9459408  40.0760000 124.4899408  64.3149408  38.6110000
 123.8189408  63.6769408  38.8510000 124.7519408  64.0669408  37.7250000
 138.2059408  71.1969408  41.0920000 138.7899408  71.1579408  40.3350000
 137.3289408  71.0939408  40.7250000 132.6159408  62.7419408  32.6460000
 132.2479408  63.1119408  31.8440000 133.2749408  63.3789408  32.9240000
 143.6789408  79.2509408  55.6230000 142.9449408  78.9459408  56.1550000
 144.0749408  79.9529408  56.1400000 123.9959408  70.0319408  49.2360000
 124.7059408  69.4889408  48.8920000 124.1359408  70.8909408  48.8370000
 135.6389408  66.6119408  38.9870000 135.6199408  66.6119408  39.9440000
 136.5409408  66.8459408  38.7660000 138.8369408  79.6889408  43.6890000
 139.6529408  79.8079408  44.1740000 139.0429408  79.9709408  42.7980000
 142.1589408  71.9809408  38.6940000 142.2029408  72.9319408  38.6020000
 142.8179408  71.6489408  38.0840000 121.5759408  61.8369408  42.3790000
 121.6699408  61.3979408  41.5340000 121.7809408  62.7539408  42.1980000
 125.8779408  71.1339408  58.3530000 126.6849408  71.2089408  58.8610000
 125.1959408  70.9759408  59.0060000 129.9729408  61.6209408  39.1660000
 130.8859408  61.7839408  38.9290000 130.0159408  61.2549408  40.0490000
 132.5159408  69.3919408  37.0440000 132.9239408  68.9559408  36.2950000
 132.6179408  68.7729408  37.7670000 140.6819408  74.5549408  40.8580000
 140.4699408  74.9719408  41.6930000 139.8309408  74.3559408  40.4670000
 138.2509408  70.8129408  57.5970000 137.9399408  70.8729408  56.6940000
 139.1989408  70.9269408  57.5330000 124.4699408  66.9909408  51.0950000
 124.3759408  66.7169408  50.1820000 124.4599408  67.9469408  51.0610000
 136.7989408  68.8369408  51.9130000 136.1259408  68.2629408  51.5470000
 137.3839408  68.2479408  52.3890000 137.3339408  61.3149408  47.3720000
 137.1459408  62.1649408  47.7700000 136.5919408  60.7639408  47.6200000
 128.5019408  64.1379408  38.6120000 128.8629408  64.4539408  37.7840000
 128.9809408  63.3279408  38.7890000 124.1719408  68.0399408  36.5580000
 123.5999408  68.3309408  37.2680000 124.3229408  68.8259408  36.0330000
 140.9309408  68.1219408  47.8530000 140.4899408  68.4399408  48.6410000
 141.2959408  68.9089408  47.4480000 129.7719408  62.8839408  35.6410000
 130.6209408  62.7349408  36.0590000 129.7999408  62.3549408  34.8440000
 144.9449408  70.7089408  52.4340000 144.4059408  70.1399408  52.9830000
 144.3479408  71.3989408  52.1430000 132.9919408  66.0789408  50.9050000
 133.2669408  66.9929408  50.8340000 133.4549408  65.7489408  51.6750000
 133.9919408  70.0189408  59.0960000 134.7189408  69.4589408  59.3680000
 134.3539408  70.5539408  58.3890000 135.0069408  67.1169408  58.0480000
 135.2319408  67.0419408  58.9750000 134.1499408  66.6969408  57.9740000
 144.9269408  75.3199408  39.5870000 145.3159408  74.5869408  40.0650000
 145.3279408  75.2809408  38.7190000 149.0709408  62.3679408  43.5800000
 149.1899408  62.7229408  44.4610000 149.9599408  62.2269408  43.2550000
 135.3469408  67.8619408  43.5700000 135.5059408  67.1419408  42.9600000
 136.2199408  68.1279408  43.8590000 121.1999408  77.8119408  59.4490000
 121.9049408  78.0979408  60.0290000 121.6469408  77.3699408  58.7280000
 122.4699408  62.2689408  39.4860000 121.9209408  63.0069408  39.2190000
 121.8819408  61.5139408  39.4670000 135.7109408  72.0629408  58.0250000
 136.5479408  71.6029408  58.0980000 135.9129408  72.9669408  58.2670000
 129.4949408  75.9309408  33.8740000 129.7659408  75.7989408  34.7830000
 129.9059408  76.7569408  33.6190000 128.0199408  61.0509408  44.0630000
 128.1869408  61.8039408  43.4960000 128.5849408  61.1939408  44.8240000
 138.9909408  68.3469408  35.9690000 139.9089408  68.3779408  36.2400000
 138.8449408  67.4349408  35.7200000 133.4439408  60.5639408  35.1250000
 134.2609408  60.5429408  35.6220000 133.7179408  60.5099408  34.2090000
 145.7759408  75.5769408  45.5950000 146.5949408  75.4519408  45.1160000
 145.8309408  74.9639408  46.3280000 134.7319408  65.0299408  36.7360000
 135.2879408  64.2539408  36.6670000 135.2679408  65.6689408  37.2060000
 134.7409408  78.3739408  58.8420000 135.0239408  79.2489408  58.5730000
 135.2609408  78.1829408  59.6220000 127.7279408  73.2519408  56.7680000
 127.4999408  72.7349408  57.5410000 128.4259408  73.8349408  57.0650000
 138.8059408  78.6449408  59.5420000 139.1739408  77.7629408  59.4910000
 139.4979408  79.2139408  59.2050000 147.4529408  72.4809408  42.6510000
 146.9679408  71.6609408  42.7380000 148.3159408  72.2169408  42.3320000
 139.8039408  70.9529408  38.8190000 140.7069408  71.2619408  38.7410000
 139.2889408  71.5889408  38.3220000 133.6759408  72.0399408  38.3110000
 132.9579408  72.4469408  38.7970000 133.3909408  71.1369408  38.1740000
 124.4319408  59.9699408  39.1520000 124.9539408  60.3289408  39.8690000
 123.7079408  60.5879408  39.0490000 133.4919408  70.2479408  45.4210000
 134.1179408  70.9619408  45.5410000 134.0109408  69.5349408  45.0460000
 148.8019408  66.7519408  45.1170000 148.5949408  66.3399408  44.2790000
 147.9779408  67.1509408  45.3980000 122.1939408  62.4329408  45.0200000
 121.9859408  62.0149408  44.1840000 122.7589408  63.1699408  44.7850000
 140.3539408  61.1919408  44.3940000 141.2449408  61.0649408  44.0680000
 140.3279408  62.1089408  44.6690000 125.9609408  61.2959408  40.8390000
 126.7089408  61.8909408  40.8830000 125.2019408  61.8499408  41.0230000
 134.0369408  69.3019408  40.0320000 133.0859408  69.2279408  39.9500000
 134.3769408  68.5189408  39.5980000 137.9639408  64.7779408  30.3340000
 137.0519408  65.0459408  30.4500000 138.1979408  64.3589408  31.1630000
 140.7849408  71.9599408  47.6010000 141.3309408  71.2469408  47.2700000
 140.9109408  72.6709408  46.9720000 136.0959408  70.7469408  39.5820000
 135.3069408  70.3579408  39.9590000 136.3329408  70.1619408  38.8630000
 126.3819408  63.8779408  36.2780000 126.8239408  64.1609408  37.0780000
 126.7769408  64.4079408  35.5850000 137.8219408  70.6709408  54.7140000
 137.0509408  70.2079408  54.3860000 138.5589408  70.2549408  54.2680000
 147.1529408  73.0869408  46.5300000 147.5009408  72.5009408  47.2020000
 146.4709408  72.5749408  46.0950000 148.4819408  70.9349408  39.6410000
 148.8959408  71.1749408  40.4700000 148.9019408  71.4979408  38.9910000
 126.4319408  69.2409408  39.6680000 125.6539408  69.7959408  39.6110000
 126.1929408  68.4429408  39.1960000 137.9739408  70.1959408  34.3400000
 138.5639408  70.9399408  34.4650000 138.2259408  69.5729408  35.0210000
 134.5639408  71.3319408  42.5050000 135.3129408  71.9219408  42.4160000
 134.8419408  70.5249408  42.0710000 130.5329408  64.8369408  41.0850000
 130.4469408  65.5079408  40.4070000 131.3799408  65.0149408  41.4930000
 137.8569408  65.7969408  36.3200000 138.7739408  65.6119408  36.1180000
 137.3679408  65.4069408  35.5960000 144.8209408  67.4299408  38.6100000
 144.9309408  66.7309408  37.9650000 145.4989408  68.0679408  38.3900000
 129.6499408  71.8419408  37.8760000 130.4039408  72.2779408  38.2730000
 129.2779408  71.3139408  38.5820000 137.8409408  71.3329408  51.0730000
 137.5779408  70.4969408  51.4570000 137.0239408  71.8229408  50.9800000
 136.4069408  63.6289408  49.0480000 137.1099408  64.2789408  49.0450000
 136.1969408  63.5069408  49.9740000 131.6449408  68.1269408  53.6070000
 131.9199408  67.4939408  54.2710000 131.9309408  68.9729408  53.9510000
 138.3389408  68.6359408  47.0160000 138.1949408  69.4509408  47.4970000
 139.2549408  68.4159408  47.1850000 127.8239408  69.7049408  31.9020000
 128.6989408  69.3949408  32.1340000 127.3699408  69.7939408  32.7400000
 127.4669408  69.5539408  56.4890000 127.0789408  70.1509408  57.1290000
 127.8689408  70.1279408  55.8380000 133.4879408  68.3599408  47.7820000
 132.5719408  68.4729408  48.0380000 133.7179408  69.1799408  47.3450000
 147.1329408  73.4899408  36.5760000 146.2129408  73.7239408  36.4540000
 147.5309408  74.2739408  36.9540000 125.3919408  69.8369408  51.5440000
 124.4879408  70.0839408  51.7380000 125.8819408  70.6569408  51.5990000
 135.6989408  73.6459408  51.5090000 134.9289408  74.2119408  51.4530000
 135.7449408  73.3939408  52.4310000 125.3759408  65.8509408  34.5400000
 125.9379408  66.5929408  34.3170000 125.1269408  66.0039408  35.4520000
 141.4999408  80.8909408  51.6630000 141.5299408  81.8449408  51.5890000
 141.2169408  80.5929408  50.7990000 136.1989408  72.7839408  54.3270000
 136.9519408  72.3809408  54.7590000 135.5079408  72.1229408  54.3830000
 140.3079408  72.6819408  51.5200000 139.5659408  72.7069408  52.1230000
 140.0339408  73.2229408  50.7790000 143.5869408  71.2759408  33.3410000
 142.6949408  71.6219408  33.3230000 144.1119408  71.9439408  32.9000000
 138.4169408  74.7709408  50.7260000 138.8399408  75.1919408  51.4750000
 137.5249408  74.5919408  51.0240000 134.9759408  75.1649408  53.9550000
 135.6309408  75.7189408  53.5300000 135.4869408  74.4979408  54.4130000
 140.1269408  77.4139408  47.2570000 140.8569408  78.0169408  47.1180000
 140.2649408  77.0689408  48.1390000 137.7229408  69.0149408  44.5310000
 138.2079408  69.8399408  44.5330000 137.7629408  68.7109408  45.4380000
 137.0589408  64.2909408  33.6940000 137.3229408  63.4279408  34.0130000
 136.3329408  64.1129408  33.0950000 132.1429408  73.0499408  53.4810000
 132.7959408  73.1569408  52.7890000 131.8279408  73.9369408  53.6530000
 129.2999408  64.7489408  46.6790000 128.4779408  64.7659408  46.1890000
 129.0309408  64.7099408  47.5970000 130.2849408  69.8869408  42.5980000
 130.8409408  69.1149408  42.4900000 130.1829408  69.9779408  43.5460000
 131.5199408  70.6549408  54.6330000 131.7749408  71.4879408  54.2350000
 130.7539408  70.3749408  54.1320000 148.8309408  67.2719408  32.2880000
 148.8699408  66.9779408  33.1980000 149.5399408  66.7969408  31.8530000
 132.8319408  66.0959408  55.8560000 132.2219408  66.7999408  56.0740000
 132.2899408  65.4319408  55.4300000 142.0739408  69.3869408  59.4840000
 142.9599408  69.0269408  59.4310000 141.4999408  68.6319408  59.3590000
 137.8369408  65.8009408  48.3520000 138.7399408  65.6199408  48.0890000
 137.7859408  66.7559408  48.3950000 135.8959408  79.4069408  54.8660000
 135.5879408  78.8379408  55.5710000 136.8499408  79.3899408  54.9430000
 141.5769408  70.0929408  43.5580000 140.8019408  70.5149408  43.9290000
 141.6999408  70.5189408  42.7100000 134.6799408  89.2389408  56.7010000
 135.3729408  89.7719408  56.3100000 134.3379408  89.7769408  57.4150000
 125.6639408  68.1749408  48.2520000 126.2629408  67.8789408  48.9380000
 125.1889408  67.3859408  47.9920000 125.9109408  66.2639408  53.1760000
 125.8639408  65.3079408  53.1610000 125.2579408  66.5469408  52.5370000
 132.0799408  62.2879408  55.6550000 131.8949408  62.3419408  56.5920000
 131.6749408  63.0719408  55.2840000 123.4729408  69.6029408  57.1470000
 123.7089408  68.7169408  56.8730000 124.0979408  69.8149408  57.8400000
 140.1159408  63.8369408  45.0270000 140.6079408  64.5009408  44.5440000
 139.2639408  63.8059408  44.5920000 129.1499408  89.6889408  52.5040000
 129.9349408  90.2339408  52.5540000 129.1679408  89.3219408  51.6200000
 130.2899408  76.9219408  56.2360000 130.6129408  76.3839408  55.5120000
 130.5349408  77.8159408  55.9980000 125.6959408  66.5609408  57.9650000
 126.2729408  66.7839408  57.2350000 126.2299408  66.7069408  58.7460000
 129.0229408  70.0999408  53.4030000 128.3649408  70.6929408  53.7660000
 128.5369408  69.3039408  53.1870000 122.6359408  69.1879408  42.6550000
 122.1249408  69.8089408  43.1730000 121.9839408  68.6069408  42.2650000
 130.1199408  61.7629408  33.4120000 129.5699408  61.8339408  32.6310000
 130.9739408  62.0939408  33.1340000 135.5569408  85.5499408  56.2860000
 134.8219408  84.9969408  56.0220000 136.0899408  85.6339408  55.4950000
 127.1549408  67.1399408  55.5410000 126.6739408  67.0259408  54.7220000
 127.2739408  68.0859408  55.6200000 134.3109408  70.8199408  55.0000000
 133.4729408  70.6859408  54.5580000 134.6099408  69.9379408  55.2200000
 144.7679408  66.0699408  47.1460000 143.8289408  66.0299408  46.9640000
 145.1819408  65.7409408  46.3480000 136.3049408  77.8459408  48.6500000
 136.4699408  78.5339408  48.0040000 136.6669408  77.0539408  48.2540000
 131.4229408  61.4139408  52.3640000 131.7979408  61.2949408  53.2370000
 132.1729408  61.6199408  51.8060000 124.3739408  62.0349408  52.5920000
 125.0449408  62.5869408  52.9950000 123.7539408  62.6539408  52.2080000
 127.8019408  76.5439408  37.0640000 127.6149408  75.6139408  37.1890000
 127.8329408  76.9049408  37.9500000 129.5459408  74.8449408  57.9910000
 129.9689408  75.6099408  57.6000000 129.0599408  75.1949408  58.7380000
 121.7749408  60.6259408  58.9360000 122.5749408  61.0719408  59.2140000
 121.1079408  61.3129408  58.9280000 130.8119408  64.5099408  54.7060000
 129.9129408  64.5729408  55.0290000 130.7219408  64.4639408  53.7540000
 128.1589408  71.4079408  59.5170000 129.1069408  71.5379408  59.5250000
 127.9899408  70.8219408  60.2550000 127.4109408  68.2469408  52.5390000
 127.0039408  67.3889408  52.6570000 126.8979408  68.6629408  51.8460000
 125.9589408  62.4859408  59.6520000 125.4029408  62.4139408  60.4270000
 125.4749408  62.0279408  58.9650000 148.9339408  59.9049408  57.3680000
 149.3039408  60.6489408  57.8430000 149.4589408  59.8439408  56.5700000
 138.8269408  63.5309408  52.3500000 138.8589408  62.6169408  52.6340000
 139.3369408  63.5479408  51.5400000 134.6579408  61.6439408  54.3280000
 135.2989408  61.5509408  55.0330000 133.8909408  62.0299408  54.7510000
 129.2199408  70.8319408  50.8010000 128.2959408  70.9889408  50.6070000
 129.2279408  70.5439408  51.7140000 127.2109408  68.0059408  35.3860000
 126.6419408  68.7579408  35.5510000 127.9689408  68.1489408  35.9520000
 141.0649408  69.6399408  32.0140000 141.5329408  69.0169408  32.5690000
 141.5449408  69.6309408  31.1850000 126.9089408  64.5699408  45.4710000
 126.4269408  65.1219408  44.8560000 126.2819408  64.3849408  46.1700000
 135.2509408  68.2789408  55.3330000 134.5369408  67.6459408  55.4040000
 135.7219408  68.2039408  56.1630000 121.6169408  69.6609408  55.2060000
 122.3259408  69.5369408  55.8370000 122.0529408  69.9679408  54.4120000
 135.4429408  60.1609408  43.2290000 136.1079408  59.5109408  43.4580000
 135.5879408  60.8799408  43.8430000 144.0269408  79.3799408  51.4100000
 144.2849408  78.4959408  51.6720000 143.1719408  79.5119408  51.8210000
 125.1149408  64.0059408  56.8730000 124.1869408  64.1409408  56.6820000
 125.3489408  64.7299408  57.4530000 141.5419408  62.2789408  54.3060000
 141.1949408  62.1159408  53.4290000 141.4429408  61.4439408  54.7630000
 135.3159408  72.0549408  46.3340000 134.9349408  72.8129408  46.7780000
 136.1729408  71.9419408  46.7450000 142.2929408  77.8109408  53.8080000
 142.1829408  77.0259408  54.3450000 142.7159408  78.4419408  54.3890000
 127.2109408  71.8149408  54.3940000 126.3699408  72.1359408  54.0660000
 127.5599408  72.5409408  54.9100000 120.1669408  68.8079408  50.3710000
 119.8829408  68.0049408  50.8070000 119.9809408  69.5029408  51.0020000
 130.7769408  69.9669408  45.3550000 131.7099408  70.1599408  45.2610000
 130.7469408  69.1889408  45.9110000 123.5569408  67.1909408  56.0440000
 124.3569408  66.6719408  56.1280000 123.4109408  67.2549408  55.1000000
 139.8279408  75.7489408  43.0870000 140.5869408  75.7009408  43.6680000
 139.2939408  74.9909408  43.3260000 120.9909408  74.1799408  59.6390000
 121.5389408  74.9439408  59.4570000 120.9489408  74.1369408  60.5940000
 131.3459408  73.1939408  58.8840000 130.7059408  73.7409408  58.4290000
 131.9039408  72.8469408  58.1880000 148.4329408  61.3169408  47.7720000
 148.3759408  60.3929408  48.0160000 148.3789408  61.7879408  48.6040000
 136.9629408  76.6139408  52.6300000 136.8069408  77.5369408  52.8310000
 137.8629408  76.5879408  52.3060000 146.9299408  71.9079408  31.8610000
 146.9209408  72.4829408  32.6270000 147.6339408  71.2839408  32.0360000
 135.8339408  63.3109408  31.4930000 136.3929408  62.5349408  31.4550000
 135.4889408  63.4019408  30.6050000 120.8749408  63.4179408  53.9600000
 120.5559408  62.5409408  53.7490000 121.6379408  63.5389408  53.3940000
 130.5189408  67.1779408  45.9270000 130.5439408  66.3239408  46.3590000
 130.1409408  66.9999408  45.0660000 135.9109408  87.6449408  50.9300000
 135.4609408  86.9469408  50.4540000 135.2979408  87.8989408  51.6190000
 135.5579408  64.1889408  56.1150000 134.8629408  64.8469408  56.1260000
 135.7909408  64.1009408  55.1910000 137.6369408  90.0739408  52.6510000
 137.4279408  89.3739408  52.0330000 137.3079408  89.7569408  53.4920000
 129.3779408  68.0839408  58.2570000 128.8019408  68.1769408  57.4980000
 130.1869408  68.5259408  58.0000000 127.9469408  67.0969408  49.7360000
 127.9239408  66.1409408  49.7090000 128.7869408  67.3059408  50.1460000
 136.8989408  89.9439408  35.6780000 136.7499408  89.2089408  36.2740000
 136.6159408  89.6199408  34.8230000 138.4289408  89.3959408  58.3290000
 137.9429408  88.5779408  58.2260000 138.7299408  89.3839408  59.2380000
 121.1219408  66.0539408  39.6410000 120.6489408  66.3209408  38.8530000
 121.9209408  66.5809408  39.6320000 122.1679408  64.6769408  42.0900000
 121.6919408  65.0179408  41.3330000 121.8439408  65.1909408  42.8290000
 148.0529408  85.8899408  42.2050000 148.2489408  86.7309408  42.6180000
 147.0989408  85.8779408  42.1250000 133.0909408  65.1259408  34.6640000
 133.6829408  65.1169408  35.4160000 132.3979408  64.5079408  34.8970000
 137.6079408  81.4719408  51.4500000 137.1129408  82.1989408  51.8280000
 137.2049408  80.6879408  51.8230000 132.8429408  84.9729408  51.9030000
 132.4879408  84.2539408  51.3800000 133.3269408  85.5089408  51.2750000
 144.3189408  84.7159408  44.1060000 144.8969408  83.9829408  43.8980000
 144.5489408  85.3919408  43.4680000 135.4449408  85.1009408  44.0140000
 136.2459408  85.2109408  43.5020000 135.0809408  84.2679408  43.7140000
 129.1669408  65.4379408  35.7480000 128.8509408  65.6709408  34.8750000
 129.4189408  64.5179408  35.6750000 132.8559408  62.0519408  39.6080000
 133.6339408  61.5559408  39.8640000 132.6389408  62.5739408  40.3800000
 140.0859408  63.0319408  31.4180000 140.4329408  62.3479408  30.8450000
 139.2249408  62.7079408  31.6830000 148.1769408  62.4219408  50.1510000
 147.3749408  62.2089408  50.6290000 148.4289408  63.2859408  50.4760000
 139.2209408  88.9019408  39.3070000 138.6819408  89.2899408  39.9960000
 138.5979408  88.6619408  38.6210000 120.9919408  59.9949408  55.7370000
 121.7769408  60.0659408  55.1940000 121.2419408  60.3889408  56.5730000
 130.4329408  61.4439408  45.7220000 130.5989408  61.4719408  46.6650000
 130.7079408  62.3039408  45.4050000 146.3379408  68.5209408  44.7070000
 145.9319408  69.3879408  44.7270000 145.5999408  67.9109408  44.7000000
 133.6439408  60.4429408  31.8470000 132.8629408  60.2199408  31.3410000
 133.6489408  61.3999408  31.8730000 123.1739408  60.5829408  34.5740000
 124.1289408  60.6499408  34.5680000 122.8779408  61.4079408  34.9580000
 148.8549408  83.9129408  40.4620000 148.1329408  83.2899408  40.3720000
 148.5459408  84.5469408  41.1090000 145.4639408  85.1709408  38.5830000
 144.5769408  85.4189408  38.3240000 145.9009408  84.9499408  37.7600000
 144.4759408  80.8279408  49.0240000 145.3199408  81.0919408  48.6570000
 144.7019408  80.2359408  49.7420000 132.9509408  61.3049408  42.5350000
 133.5739408  60.6049408  42.7320000 132.1069408  60.9639408  42.8300000
 149.8429408  86.8959408  38.9490000 149.2369408  86.1979408  38.6960000
 150.4319408  86.4839408  39.5810000 148.8189408  88.9629408  49.5480000
 149.3499408  88.7979408  50.3270000 147.9169408  88.8389408  49.8420000
 127.1999408  62.1849408  49.7970000 127.7519408  61.4189408  49.6400000
 126.4489408  61.8439408  50.2840000 131.4439408  75.8639408  53.9440000
 132.0879408  76.3889408  53.4680000 130.7859408  75.6379408  53.2870000
 139.0259408  74.6979408  35.6060000 139.1789408  75.5409408  36.0320000
 138.8219408  74.0999408  36.3250000 147.3529408  60.3099408  42.8330000
 147.5099408  59.6729408  43.5300000 147.9369408  61.0399408  43.0390000
 144.6629408  79.5749408  42.4850000 144.9049408  78.8659408  43.0800000
 144.1909408  79.1409408  41.7740000 145.2199408  74.8659408  31.3530000
 145.3179408  74.0859408  30.8060000 144.4369408  75.3009408  31.0120000
 138.8679408  87.6099408  33.3490000 139.7269408  87.3279408  33.6620000
 138.2529408  87.2769408  34.0020000 128.3579408  64.1779408  31.8600000
 128.4489408  64.8209408  32.5630000 127.5369408  63.7239408  32.0540000
 137.3879408  82.3639408  57.4260000 137.6389408  82.8729408  58.1970000
 138.1209408  82.4709408  56.8190000 145.9239408  82.7609408  43.2040000
 145.7279408  82.7439408  42.2670000 146.0819408  81.8459408  43.4340000
 139.3099408  86.6769408  44.0320000 139.6109408  86.8749408  44.9190000
 139.3619408  85.7229408  43.9680000 149.6089408  87.8679408  45.3230000
 150.1049408  87.1339408  44.9590000 150.2649408  88.5469408  45.4810000
 142.3659408  74.6299408  38.6880000 141.7399408  74.6659408  39.4110000
 143.1379408  75.0919408  39.0160000 123.4409408  66.1809408  31.9050000
 124.0029408  66.8479408  31.5100000 123.9759408  65.7989408  32.6010000
 138.2589408  72.5979408  37.4360000 137.7069408  71.9699408  36.9700000
 137.6589408  73.0499408  38.0290000 120.1369408  63.5589408  35.8370000
 119.9919408  62.6449408  35.5950000 120.0729408  63.5669408  36.7920000
 139.9039408  60.2909408  56.3150000 139.3069408  60.0529408  57.0240000
 140.2959408  61.1169408  56.5980000 146.3759408  83.1479408  52.1470000
 145.9069408  83.8409408  51.6830000 147.2419408  83.1299408  51.7400000
 128.6959408  64.9359408  56.2190000 128.5659408  64.8349408  57.1620000
 127.9669408  65.4869408  55.9330000 125.0549408  60.9999408  57.6170000
 125.2369408  61.8089408  57.1400000 124.9239408  60.3429408  56.9330000
 143.3719408  89.3539408  46.9710000 143.3079408  88.3989408  46.9860000
 142.9949408  89.6059408  46.1290000 136.2559408  83.4489408  52.4580000
 135.9049408  83.5529408  51.5740000 135.4959408  83.5559408  53.0320000
 136.4109408  87.9309408  46.0400000 136.7929408  88.4529408  46.7440000
 136.9819408  88.0879408  45.2870000 134.1419408  84.1589408  54.0840000
 133.6309408  83.3779408  54.2940000 133.5819408  84.6599408  53.4910000
 133.5379408  76.9969408  52.3460000 134.1009408  76.3869408  52.8230000
 133.4289408  76.5979408  51.4830000 143.3409408  85.3679408  56.2690000
 143.8739408  85.7849408  55.5910000 142.6439408  85.9989408  56.4470000
 141.0999408  87.1969408  56.2780000 140.7519408  87.3389408  55.3980000
 141.3499408  88.0699408  56.5810000 134.6979408  85.7839408  49.6430000
 134.8279408  85.7939408  48.6940000 134.6369408  84.8559408  49.8670000
 131.6579408  89.4879408  55.1230000 131.5199408  90.2759408  55.6490000
 132.5939408  89.3049408  55.2060000 128.4599408  62.5539408  54.9290000
 128.0919408  61.8119408  55.4080000 128.4689408  63.2689408  55.5650000
 144.5209408  77.0009408  52.3890000 145.1209408  76.3069408  52.6620000
 143.6929408  76.7869408  52.8180000 134.6939408  87.6009408  59.4540000
 133.7959408  87.3609408  59.6810000 134.6029408  88.1929408  58.7070000
 134.6019408  88.8039408  53.5100000 135.1489408  88.3629408  54.1610000
 134.6489408  89.7299408  53.7450000 137.2359408  85.8399408  54.2300000
 137.9919408  85.7569408  53.6490000 136.6439408  85.1399408  53.9550000
 136.3829408  85.0279408  46.5230000 135.9809408  84.9789408  45.6560000
 136.6939408  85.9299408  46.5930000 146.7709408  63.6649408  52.7270000
 146.7729408  62.8369408  53.2070000 147.3549408  64.2339408  53.2270000
 129.9189408  63.5539408  51.8240000 129.1149408  63.4609408  52.3350000
 130.5089408  62.8899408  52.1800000 131.3379408  88.9519408  57.8980000
 130.3879408  88.9459408  57.7800000 131.6909408  88.7969408  57.0220000
 130.8449408  62.1909408  58.1290000 129.9649408  61.9919408  57.8090000
 130.7209408  62.4099408  59.0520000 141.6459408  85.8579408  49.2480000
 141.8839408  85.4889408  48.3980000 141.1379408  85.1669408  49.6750000
 146.5009408  83.4099408  33.8900000 147.2679408  83.2959408  33.3290000
 146.1529408  84.2679408  33.6490000 132.1069408  88.3369408  52.1520000
 132.8629408  88.3479408  52.7390000 131.9139408  89.2609408  51.9920000
 126.9049408  89.6589408  54.4020000 127.4049408  89.1249408  55.0190000
 127.5369408  89.8999408  53.7250000 135.8789408  62.1039408  51.6990000
 135.5149408  61.9559408  52.5720000 136.7829408  61.7959408  51.7610000
 139.3409408  79.3989408  50.3370000 139.0289408  79.1119408  49.4790000
 138.5439408  79.5879408  50.8320000 134.5349408  63.3569408  58.7370000
 134.1719408  62.4879408  58.5610000 135.0539408  63.5609408  57.9590000
 137.1019408  75.7249408  55.9070000 137.7749408  76.4049408  55.8650000
 136.2939408  76.1989408  56.1020000 133.0649408  61.5539408  50.0000000
 133.9649408  61.6039408  50.3230000 132.9399408  60.6309408  49.7800000
 128.2529408  61.2669408  58.1430000 127.5959408  61.4079408  58.8250000
 128.1889408  60.3329408  57.9390000 135.1319408  77.2609408  56.3960000
 135.2409408  77.6919408  57.2440000 134.5449408  76.5269408  56.5740000
 145.0939408  63.0129408  55.4040000 144.7599408  62.6939408  54.5660000
 145.6369408  62.2969408  55.7340000 129.0859408  61.1759408  31.1750000
 128.4019408  60.5059408  31.1510000 128.6729408  61.9539408  30.8020000
 128.4229408  88.5869408  57.7970000 128.0969408  88.0029408  57.1120000
 128.0209408  88.2599408  58.6020000 133.1219408  75.2349408  56.3590000
 132.9999408  74.2859408  56.3360000 133.2029408  75.4879408  55.4390000
 125.5019408  60.1759408  50.8970000 125.1519408  60.8029408  51.5300000
 125.3639408  59.3209408  51.3060000 134.6709408  67.7959408  35.3550000
 135.3629408  67.6749408  34.7050000 134.3999408  66.9069408  35.5840000
 132.2429408  66.3459408  37.8770000 133.0639408  65.9189408  37.6340000
 131.5769408  65.9019408  37.3520000 130.7739408  66.2109408  59.9660000
 131.1209408  66.8889408  60.5450000 130.1539408  66.6719408  59.4000000
 144.9609408  75.1169408  36.4150000 144.0719408  75.3439408  36.1410000
 145.4919408  75.8699408  36.1570000 139.3769408  67.5459408  42.7920000
 139.5639408  67.9789408  41.9590000 138.9799408  68.2279408  43.3340000
 149.9389408  72.9329408  50.1570000 149.2409408  73.5489408  49.9330000
 149.5489408  72.0699408  50.0180000 143.4369408  68.0999408  44.6000000
 143.0629408  68.4679408  43.7990000 143.0709408  67.2169408  44.6520000
 147.4789408  63.9939408  40.6530000 147.3369408  64.2939408  39.7560000
 147.7139408  63.0699408  40.5640000 143.8419408  67.9109408  41.1330000
 143.2649408  68.4849408  40.6300000 144.5029408  67.6239408  40.5030000
 144.1399408  61.3499408  40.9420000 143.2239408  61.4689408  41.1920000
 144.1099408  60.7419408  40.2040000 142.8249408  81.8459408  59.9020000
 143.1099408  81.1609408  60.5080000 143.3979408  81.7459408  59.1420000
 120.0609408  66.7279408  47.5830000 120.7789408  67.3319408  47.7720000
 119.7179408  67.0209408  46.7390000 139.3879408  72.0239408  31.7080000
 138.4449408  72.1189408  31.5730000 139.5609408  71.0969408  31.5410000
 138.6229408  64.8899408  42.5080000 139.1929408  64.4829408  41.8550000
 138.9969408  65.7609408  42.6440000 148.2209408  83.3229408  44.8680000
 147.5639408  83.4529408  44.1850000 149.0359408  83.1649408  44.3900000
 147.7609408  62.7849408  33.9490000 148.2159408  62.0179408  33.6010000
 147.0409408  62.9349408  33.3370000 139.5339408  77.2399408  56.6460000
 140.2919408  76.8729408  56.1910000 139.5379408  76.8119408  57.5020000
 145.9399408  65.4359408  44.7680000 146.1589408  65.8389408  43.9280000
 145.7629408  64.5199408  44.5560000 145.4509408  66.9699408  35.4990000
 144.8859408  66.2069408  35.3780000 145.7639408  67.1789408  34.6180000
 125.6159408  63.9159408  47.9620000 126.1299408  63.4149408  48.5940000
 125.1099408  63.2559408  47.4870000 145.2969408  65.6169408  49.7390000
 146.1719408  65.2819408  49.5430000 144.9219408  65.8239408  48.8830000
 130.5079408  67.1349408  50.9140000 131.3479408  66.7929408  50.6060000
 130.6289408  67.2549408  51.8560000 149.5329408  60.6999408  33.3760000
 150.1959408  60.7629408  32.6890000 149.1429408  59.8339408  33.2540000
 139.1209408  71.3209408  43.8360000 138.7309408  71.3989408  42.9650000
 138.7629408  72.0599408  44.3270000 143.4509408  76.6139408  47.9200000
 143.0099408  77.2459408  47.3520000 142.8429408  76.4799408  48.6470000
 120.5589408  63.4369408  32.1060000 120.9039408  63.9419408  31.3700000
 119.6199408  63.3699408  31.9320000 145.4529408  83.0009408  36.3470000
 146.1639408  82.5919408  36.8410000 145.8259408  83.1649408  35.4810000
 139.8289408  72.1619408  34.8400000 140.2879408  72.3219408  35.6640000
 139.5549408  73.0299408  34.5450000 138.0169408  67.0069408  57.2190000
 137.3259408  66.5609408  57.7080000 138.0999408  66.5049408  56.4080000
 145.5609408  71.1319408  45.4750000 145.1189408  70.5969408  46.1340000
 144.8589408  71.6419408  45.0700000 146.7429408  63.6139408  47.8620000
 146.4659408  64.0829408  47.0750000 146.0469408  62.9769408  48.0200000
 139.8959408  67.7829408  59.2340000 139.4559408  67.5179408  58.4260000
 139.2739408  67.5689408  59.9280000 149.2179408  83.7659408  35.8380000
 149.3659408  84.3189408  35.0710000 149.4309408  82.8809408  35.5410000
 141.2669408  60.7559408  38.5830000 141.3999408  61.0999408  39.4660000
 140.5919408  60.0849408  38.6870000 144.1839408  64.4299408  59.2750000
 143.9199408  65.0219408  58.5710000 143.4349408  64.4179408  59.8720000
 147.0209408  60.6149408  53.3560000 146.1119408  60.3729408  53.1770000
 147.4589408  59.7839408  53.5400000 147.0549408  80.3509408  43.5330000
 146.2059408  80.0659408  43.1960000 147.4329408  79.5649408  43.9270000
 143.3629408  65.0449408  41.8150000 143.7649408  65.8809408  41.5770000
 144.1039408  64.4649408  41.9930000 144.9759408  61.0289408  50.1130000
 144.6729408  61.3969408  49.2830000 144.4759408  61.4979408  50.7810000
 142.5319408  83.9129408  46.2690000 143.3199408  83.8259408  46.8050000
 142.8589408  84.0669408  45.3830000 146.3219408  67.4929408  53.9420000
 146.3019408  66.7529408  54.5480000 147.1049408  67.9849408  54.1900000
 120.1739408  71.8329408  41.6060000 120.4409408  71.6049408  42.4960000
 120.8999408  72.3529408  41.2630000 145.7369408  79.1459408  38.1800000
 144.8499408  79.1279408  38.5390000 146.1869408  78.4239408  38.6170000
 136.6539408  69.5689408  37.1000000 136.2859408  69.1019408  36.3490000
 137.5579408  69.2609408  37.1550000 138.3429408  85.7469408  36.0430000
 138.8659408  84.9999408  35.7510000 137.5969408  85.7659408  35.4440000
 143.2419408  83.1659408  40.4920000 142.9709408  83.7249408  39.7630000
 142.5509408  82.5069408  40.5570000 145.7379408  86.5139408  46.0000000
 145.5399408  85.6189408  45.7260000 144.8859408  86.8929408  46.2160000
 120.0309408  66.3349408  37.2890000 119.4529408  65.8939408  36.6650000
 120.7089408  66.7369408  36.7450000 125.4109408  61.6389408  44.1010000
 126.3529408  61.5459408  43.9540000 125.1199408  62.2449408  43.4200000
 140.9789408  71.3509408  58.1040000 141.4849408  70.7389408  58.6380000
 141.4719408  71.4199408  57.2860000 132.0409408  63.7889408  30.3090000
 131.4489408  64.5119408  30.1020000 132.7159408  63.8299408  29.6310000
 144.4599408  62.0869408  47.5660000 144.6979408  62.1839408  46.6440000
 143.9199408  61.2969408  47.5930000 128.5499408  64.3989408  49.4280000
 129.1569408  64.0959408  50.1040000 127.8149408  63.7869408  49.4750000
 147.6739408  67.2299408  58.4930000 148.1929408  68.0039408  58.2730000
 147.5139408  66.7999408  57.6530000 141.2339408  61.7299408  41.0500000
 141.0569408  61.7479408  41.9900000 141.0979408  62.6329408  40.7630000
 142.1169408  66.2239408  46.4610000 141.5759408  66.8179408  46.9810000
 141.6809408  66.1839408  45.6100000 137.0459408  69.7769408  60.0950000
 136.9329408  70.7139408  60.2500000 137.3599408  69.7189408  59.1920000
 147.9949408  61.5439408  39.2960000 147.6689408  60.7739408  39.7610000
 147.5859408  61.4939408  38.4320000 141.5719408  76.0879408  49.4610000
 141.2589408  76.5549408  50.2350000 142.0279408  75.3219408  49.8100000
 122.6959408  64.0899408  51.8710000 122.3059408  63.5869408  51.1560000
 122.9999408  64.8979408  51.4560000 149.8669408  82.4849408  53.7190000
 150.5199408  82.0109408  53.2050000 149.1229408  82.5889408  53.1250000
 142.9719408  89.7709408  36.6800000 142.3179408  90.1079408  37.2920000
 143.6439408  89.3789408  37.2390000 132.1399408  67.4559408  42.2220000
 133.0799408  67.4309408  42.0430000 131.9669408  66.6499408  42.7080000
 142.2569408  72.3619408  41.4830000 141.7519408  73.1539408  41.2990000
 142.2079408  71.8529408  40.6740000 147.9939408  68.9349408  48.7130000
 148.8849408  68.7869408  49.0320000 147.4419408  68.4079408  49.2910000
 145.9349408  81.0989408  58.9360000 145.4299408  81.0179408  58.1280000
 146.4369408  81.9069408  58.8260000 122.6369408  68.9269408  38.6340000
 123.0599408  69.1289408  39.4690000 121.7709408  69.3279408  38.7010000
 121.9669408  68.2519408  48.4270000 122.8179408  68.6559408  48.5950000
 121.4089408  68.5619408  49.1400000 147.5039408  65.9579408  42.6760000
 147.6349408  65.1329408  42.2080000 147.4329408  66.6169408  41.9850000
 126.0659408  63.5049408  33.3350000 125.7129408  64.3689408  33.5490000
 125.3759408  63.0859408  32.8200000 140.1629408  63.2489408  37.1740000
 140.7889408  62.6829408  37.6270000 139.4289408  63.3299408  37.7820000
 125.8869408  70.2809408  35.3640000 125.6359408  70.8369408  36.1020000
 125.8729408  70.8659408  34.6070000 142.0509408  87.8479408  51.3780000
 142.2919408  87.3129408  50.6220000 142.4079408  88.7149408  51.1820000
 146.0049408  88.4509408  50.5770000 145.3879408  87.8689408  50.1320000
 145.6789408  89.3319408  50.3920000 142.1649408  67.7679408  38.6350000
 143.0789408  67.4839408  38.6030000 142.1279408  68.5239408  38.0490000
 144.3869408  70.8979408  37.2380000 144.6949408  71.3449408  38.0260000
 145.0989408  71.0059408  36.6070000 140.4669408  87.5979408  46.5020000
 140.0149408  88.4079408  46.7400000 139.9129408  86.9009408  46.8520000
 147.1109408  67.9229408  40.7590000 146.6699408  68.6599408  41.1820000
 147.2859408  68.2279408  39.8680000 144.4309408  68.2329408  30.1660000
 144.9999408  68.8329408  29.6840000 144.9499408  67.9689408  30.9260000
 147.6649408  77.8339408  50.4340000 147.0099408  77.9209408  51.1270000
 147.7929408  78.7259408  50.1110000 140.4459408  65.7249408  35.9510000
 140.6899408  64.9389408  36.4390000 141.2809408  66.0999408  35.6680000
 143.0409408  85.6989408  37.7480000 142.2169408  86.1149408  37.4950000
 143.0589408  84.8799408  37.2530000 135.0709408  63.1099408  41.9730000
 135.9309408  62.7019408  41.8700000 134.5769408  62.4959408  42.5170000
 121.2549408  66.8109408  44.1630000 120.3669408  66.7379408  44.5100000
 121.5479408  67.6809408  44.4330000 145.3289408  73.5029408  41.5810000
 145.0329408  74.2309408  42.1270000 146.1189408  73.1829408  42.0170000
 147.1119408  87.8559408  44.3000000 146.6299408  87.3489408  44.9530000
 148.0099408  87.8809408  44.6300000 144.7879408  62.1149408  35.8990000
 144.1839408  61.3719408  35.9120000 145.6579408  61.7159408  35.9040000
 139.4179408  75.1679408  46.0930000 140.2329408  74.6729408  46.0060000
 139.6999408  76.0539408  46.3210000 147.7659408  73.5989408  33.8470000
 147.7389408  73.8419408  34.7720000 147.9009408  74.4269408  33.3850000
 142.8469408  74.3839408  59.2860000 143.0729408  75.2939408  59.4810000
 142.3399408  74.4319408  58.4760000 144.5049408  63.7859408  38.3370000
 144.6659408  63.1259408  37.6630000 145.3689408  63.9629408  38.7110000
 147.8919408  75.9599408  31.8140000 147.0629408  75.4949408  31.6950000
 148.2699408  76.0039408  30.9360000 141.4209408  65.9589408  43.7260000
 140.7449408  66.4539408  43.2630000 142.0389408  65.6999408  43.0420000
 145.4809408  71.9639408  39.4060000 145.1199408  72.5119408  40.1030000
 146.2799408  71.5939408  39.7810000 147.2379408  64.9699408  38.0610000
 147.3909408  65.8909408  38.2740000 147.5609408  64.8749408  37.1650000
 144.1389408  68.9709408  54.3760000 143.4629408  68.4299408  53.9690000
 144.9209408  68.4189408  54.3760000 142.8489408  73.5719408  49.9600000
 143.5609408  73.2709408  49.3950000 142.1069408  73.0129408  49.7290000
 143.2589408  60.4689408  44.2250000 143.7039408  59.7619408  43.7580000
 143.9489408  61.1049408  44.4120000 136.2619408  65.6629408  41.8050000
 137.1559408  65.3529408  41.9450000 135.7269408  64.8699408  41.8260000
 145.2609408  62.5219408  45.1500000 146.1599408  62.1979408  45.2140000
 145.1129408  62.6349408  44.2110000 146.0369408  69.7699408  42.4210000
 146.3529408  69.1019408  43.0300000 145.0999408  69.8379408  42.6050000
 143.0209408  68.4339408  33.5050000 143.2149408  69.3699408  33.4500000
 143.4379408  68.1499408  34.3190000 138.3969408  61.7669408  34.5070000
 138.1719408  61.0319408  35.0770000 139.3529408  61.8069408  34.5340000
 147.9889408  69.2129408  55.4190000 148.5799408  69.2639408  56.1700000
 147.4759408  70.0199408  55.4620000 149.4079408  80.4649408  42.4830000
 148.5159408  80.4729408  42.8300000 149.2959408  80.4509408  41.5330000
 139.9099408  68.3669408  40.0660000 139.9099408  69.2509408  39.6990000
 140.6139408  67.9149408  39.6030000 142.6919408  71.3699408  56.1520000
 142.7639408  70.5559408  55.6530000 143.5839408  71.5479408  56.4510000
 142.3429408  77.8229408  43.7280000 142.4789408  78.5569408  44.3260000
 141.4959408  77.9999408  43.3180000 138.5539408  78.9259408  54.6820000
 138.7939408  78.2999408  55.3660000 139.3529408  79.4279408  54.5250000
 138.5449408  66.2349408  38.9460000 138.6869408  66.3049408  38.0020000
 138.8589408  67.0669408  39.2990000 137.5829408  62.1169408  41.6990000
 137.5359408  61.9249408  42.6360000 137.4419408  61.2719408  41.2740000
 143.0879408  66.0449408  32.2860000 143.1179408  66.9629408  32.5550000
 142.5769408  66.0479408  31.4770000 139.4299408  89.0179408  30.8690000
 140.3869408  89.0099408  30.8630000 139.1899408  88.4979408  31.6360000
 143.0929408  64.5809408  56.6170000 143.7929408  64.1529408  56.1250000
 142.4559408  64.8409408  55.9520000 149.4029408  81.3029408  46.8030000
 149.1189408  82.1149408  46.3830000 150.2919408  81.4879408  47.1050000
 127.9229408  60.9289408  37.0610000 128.3859408  61.4039408  37.7510000
 127.6119408  61.6119408  36.4670000 146.0629408  66.2019408  32.8730000
 146.7759408  66.4759408  32.2960000 145.4759408  65.7009408  32.3070000
 145.4119408  80.8149408  31.5320000 145.4999408  80.9999408  30.5970000
 146.2239408  80.3649408  31.7650000 148.3659408  65.4669408  49.3010000
 148.8039408  65.9929408  48.6320000 148.0599408  64.6899408  48.8330000
 133.7059408  60.8079408  58.7940000 132.8089408  60.6749408  59.0990000
 134.2449408  60.6919408  59.5770000 140.9419408  64.3839408  47.7550000
 140.5819408  63.9059408  47.0080000 141.5239408  65.0359408  47.3640000
 139.5519408  73.4549408  59.3200000 139.6209408  72.9329408  60.1200000
 139.9389408  72.9039408  58.6400000 149.4049408  69.7769408  31.2160000
 149.7829408  69.6169408  30.3520000 148.8879408  68.9919408  31.4010000
 143.8139408  76.7889408  59.7140000 143.7769408  77.3819408  60.4640000
 144.6549408  76.9789408  59.2980000 141.4199408  73.2069408  54.2540000
 141.6209408  72.3409408  54.6100000 141.2789408  73.0559408  53.3200000
 144.3839408  76.4509408  56.5200000 144.4989408  77.3369408  56.1780000
 144.0379408  76.5779408  57.4040000 149.1759408  70.3779408  52.4850000
 148.2839408  70.5879408  52.2080000 149.0939408  70.1619408  53.4140000
 147.5159408  71.6489408  48.8270000 147.5849408  70.6959408  48.7670000
 147.6049408  71.8379408  49.7610000 148.1189408  73.0759408  53.9840000
 148.7619408  72.6759408  54.5710000 147.4529408  73.4369408  54.5690000
 144.1129408  61.7349408  58.1150000 144.7809408  61.4299408  57.5010000
 144.4059408  62.6089408  58.3730000 141.7639408  73.3609408  32.3840000
 141.7739408  73.7069408  31.4920000 140.9559408  72.8499408  32.4340000
 120.6829408  64.4809408  56.5800000 120.8219408  64.3349408  55.6450000
 120.8769408  65.4089408  56.7100000 148.0309408  85.7699408  30.2010000
 147.6519408  86.3839408  29.5710000 148.7909408  86.2309408  30.5560000
 122.9169408  70.2559408  52.9200000 122.3259408  70.8239408  52.4250000
 123.4999408  70.8599408  53.3800000 141.1939408  64.9999408  54.4080000
 140.3499408  65.2639408  54.7730000 141.2559408  64.0639408  54.5980000
 146.5439408  65.5789408  55.9390000 145.8209408  64.9659408  55.8060000
 147.3229408  65.0939408  55.6660000 148.7599408  88.1839408  33.0480000
 148.8759408  87.2849408  33.3560000 149.4779408  88.3219408  32.4310000
 122.6489408  67.0719408  53.3300000 122.9159408  67.8839408  52.8980000
 122.1039408  66.6239408  52.6820000 142.4329408  84.4709408  30.8190000
 141.6569408  84.3989408  31.3750000 142.5059408  83.6149408  30.3970000
 147.0089408  67.7539408  50.9100000 147.1639408  67.5669408  51.8360000
 146.1749408  67.3249408  50.7160000 125.1829408  75.2449408  58.7310000
 125.2499408  74.6459408  57.9880000 126.0909408  75.4169408  58.9820000
 146.9399408  70.5709408  35.5480000 147.2969408  71.4359408  35.7460000
 147.5429408  70.2049408  34.9000000 142.1869408  67.3489408  53.2340000
 142.6329408  67.2299408  52.3960000 141.9849408  66.4599408  53.5270000
 143.0549408  86.8219408  45.9560000 142.1179408  86.8199408  46.1500000
 143.1779408  86.0819408  45.3610000 146.0829408  74.9759408  52.9120000
 146.8299408  74.5689408  52.4730000 146.1679408  74.7089408  53.8270000
 121.7139408  64.7479408  34.2270000 121.3929408  64.3309408  33.4270000
 121.0859408  64.4889408  34.9010000 146.7119408  88.8939408  31.2240000
 147.5319408  88.5429408  31.5710000 146.3319408  89.3829408  31.9540000
 147.4089408  88.0439408  58.3580000 146.8659408  88.5749408  58.9420000
 148.0689408  88.6529408  58.0260000 144.1759408  78.5089408  31.7660000
 144.5339408  79.3739408  31.5650000 144.8279408  78.1069408  32.3410000
 145.2449408  75.1359408  49.2390000 144.6809408  75.3399408  49.9860000
 145.0279408  75.8009408  48.5860000 147.8889408  62.9389408  30.7890000
 147.1389408  62.3659408  30.9500000 147.5709408  63.8159408  31.0000000
 137.5889408  65.9449408  51.8650000 137.9269408  65.0509408  51.9150000
 138.2399408  66.4199408  51.3480000 138.6329408  63.7929408  57.6990000
 139.4459408  63.2949408  57.6140000 138.5859408  64.0199408  58.6280000
 149.2179408  71.7099408  56.2810000 149.3859408  71.1539408  57.0420000
 149.5759408  72.5639408  56.5240000 140.0679408  66.6019408  50.6770000
 140.4109408  65.7399408  50.4420000 140.8469408  67.1369408  50.8290000
 149.4139408  63.1659408  46.0720000 149.2369408  62.3849408  46.5970000
 148.9069408  63.8589408  46.4960000 146.1419408  72.3979408  57.6270000
 145.4329408  72.2329408  58.2480000 146.9029408  72.5879408  58.1750000
 137.8799408  67.6249408  54.1220000 137.7579408  66.6759408  54.0920000
 137.0159408  67.9709408  54.3480000 141.5639408  75.6829408  55.4200000
 142.2419408  75.5029408  56.0710000 141.3869408  74.8329408  55.0160000
 149.8499408  62.5939408  58.7080000 149.3119408  62.9239408  59.4270000
 149.7199408  63.2259408  58.0010000 144.0009408  64.7069408  35.0710000
 143.8849408  64.5229408  34.1390000 144.2479408  63.8649408  35.4530000
 148.6979408  64.9809408  53.9730000 149.2289408  65.6649408  54.3820000
 149.2709408  64.2149408  53.9480000 122.5169408  63.7909408  58.9940000
 122.3399408  64.7299408  59.0370000 122.0049408  63.4829408  58.2460000
 140.1359408  76.2199408  58.9780000 139.9219408  75.3049408  58.7990000
 140.5769408  76.2019408  59.8280000 140.0029408  69.2039408  53.4090000
 140.8009408  68.6759408  53.4560000 139.3039408  68.6049408  53.6730000
 143.6059408  72.7209408  44.1930000 143.3069408  72.6279408  43.2890000
 143.8659408  73.6389408  44.2670000 141.9269408  78.4589408  57.4240000
 141.6859408  79.2179408  57.9550000 141.2059408  77.8409408  57.5460000
 140.6599408  80.6539408  58.5530000 140.8069408  80.9329408  59.4560000
 140.5649408  81.4699408  58.0610000 143.0969408  67.0939408  50.7320000
 143.5719408  67.7899408  50.2780000 143.5829408  66.2959408  50.5220000
 120.1209408  67.1739408  55.0360000 121.0009408  67.3079408  54.6820000
 119.6779408  68.0119408  54.9010000 141.2829408  64.2129408  40.2370000
 142.1709408  64.4309408  40.5200000 140.9569408  65.0169408  39.8310000
 125.2779408  71.5559408  37.5480000 124.8449408  70.9229408  38.1220000
 125.5749408  72.2489408  38.1370000 126.0519408  66.0389408  42.9900000
 126.7619408  65.9259408  42.3580000 125.9799408  66.9859408  43.1040000
 145.8779408  74.2189408  55.3820000 145.9199408  73.5969408  56.1090000
 145.3539408  74.9449408  55.7190000 146.9689408  86.1229408  52.1750000
 147.8909408  86.2139408  52.4190000 146.8059408  86.8519408  51.5770000
 120.5089408  69.7659408  43.8980000 119.8269408  69.7809408  44.5700000
 120.2249408  69.0889408  43.2830000 142.0069408  73.9469408  46.1180000
 142.6479408  73.3789408  45.6900000 142.4899408  74.3509408  46.8390000
 141.3509408  83.5839408  57.1550000 142.0519408  84.1379408  56.8110000
 140.8199408  84.1729408  57.6900000 144.1139408  63.7159408  51.1230000
 144.5879408  64.4759408  50.7840000 144.5419408  63.5189408  51.9560000
 119.8739408  69.2279408  57.4500000 120.4399408  69.4969408  56.7260000
 120.4529408  68.7489408  58.0430000 133.7419408  66.4529408  45.6390000
 134.2449408  66.8479408  44.9270000 133.4279408  67.1979408  46.1520000
 148.1879408  72.5169408  59.3490000 149.0379408  72.9559408  59.3450000
 148.2049408  71.9679408  60.1330000 139.3529408  69.0949408  49.9650000
 138.9699408  69.8979408  50.3180000 139.1119408  68.4159408  50.5960000
 137.2159408  62.2419408  44.2630000 137.4569408  61.6839408  45.0030000
 136.9959408  63.0849408  44.6600000 126.1759408  63.6459408  53.8610000
 127.0319408  63.4339408  54.2340000 125.6269408  63.8449408  54.6190000
 147.4739408  68.2959408  37.3770000 147.0789408  69.0559408  36.9490000
 147.4529408  67.6089408  36.7110000 123.5789408  65.2939408  44.7230000
 124.2869408  65.7469408  44.2640000 122.8469408  65.9109408  44.7040000
 134.3679408  68.5949408  50.4910000 134.4269408  69.5469408  50.5680000
 134.3979408  68.4279408  49.5490000 139.6399408  77.0629408  51.6660000
 140.2749408  77.2579408  52.3550000 139.4069408  77.9179408  51.3040000
 147.1349408  72.3819408  51.4320000 146.3539408  71.8949408  51.6950000
 147.7049408  72.3559408  52.2000000 121.7099408  64.5589408  47.3620000
 121.2679408  64.1129408  46.6390000 121.0809408  65.2169408  47.6580000
 123.7859408  63.1389408  35.5410000 124.7399408  63.2159408  35.5740000
 123.5029408  63.8839408  35.0110000 142.3099408  70.3559408  51.7640000
 141.7209408  71.1059408  51.6740000 141.7629408  69.6659408  52.1410000
 148.6129408  80.5529408  50.3810000 149.2029408  80.8629408  51.0670000
 148.5069408  81.3039408  49.7970000 144.3199408  75.3179408  43.4330000
 143.7379408  76.0469408  43.2200000 144.8819408  75.6559408  44.1310000
 142.5469408  75.5769408  34.2880000 141.8889408  76.0879408  33.8160000
 142.4899408  74.7009408  33.9070000 139.5539408  60.0589408  47.2370000
 139.8519408  60.3489408  46.3750000 138.6799408  60.4369408  47.3290000
 144.5779408  86.1839408  49.7680000 145.3119408  85.7339408  49.3490000
 143.8019408  85.8429408  49.3220000 141.9709408  89.7309408  34.2900000
 141.4919408  90.5529408  34.3860000 142.2929408  89.5359408  35.1700000
 139.7779408  83.9979408  43.5600000 140.2779408  84.1409408  42.7560000
 140.3799408  83.5269408  44.1360000 136.2369408  62.5929408  37.0360000
 136.4979408  61.7169408  36.7530000 137.0569408  63.0199408  37.2820000
 137.8549408  63.6489408  38.8230000 138.0219408  64.5789408  38.9790000
 137.6949408  63.2839408  39.6930000 140.3289408  84.1079408  32.8240000
 139.6049408  84.5969408  32.4350000 140.2499408  84.2699408  33.7640000
 141.6989408  60.0119408  49.4060000 142.3109408  59.7979408  48.7010000
 140.9559408  60.4209408  48.9620000 147.1489408  81.4149408  38.1260000
 147.0169408  81.9989408  38.8730000 146.3659408  80.8649408  38.1090000
 141.1139408  62.1109408  34.7390000 141.1109408  62.6599408  35.5240000
 141.5609408  62.6399408  34.0780000 142.0079408  70.1399408  46.2200000
 141.9829408  70.3189408  45.2790000 142.8879408  69.7949408  46.3750000
 147.8639408  77.4319408  39.3610000 147.7469408  77.2979408  40.3010000
 148.3079408  78.2779408  39.2930000 145.5019408  85.3549408  58.7860000
 146.3499408  84.9159408  58.7100000 145.0439408  85.1329408  57.9750000
 146.6749408  77.5639408  43.5590000 146.2789408  77.7839408  44.4030000
 146.8119408  76.6169408  43.5990000 139.9319408  83.5469408  35.4520000
 139.4589408  82.7149408  35.4690000 140.8459408  83.3059408  35.6030000
 143.0439408  81.6259408  43.4910000 142.5689408  81.6099408  42.6600000
 143.9519408  81.4399408  43.2520000 141.5259408  87.0239408  33.9340000
 141.8329408  86.7029408  33.0860000 141.8009408  87.9409408  33.9570000
 142.5659408  83.1829408  36.2490000 142.5139408  82.3989408  36.7960000
 143.4839408  83.2299408  35.9820000 145.2289408  63.2469408  42.4100000
 144.8559408  62.6399408  41.7710000 146.0849408  63.4789408  42.0500000
 145.3229408  76.5199408  33.7300000 145.4299408  75.8639408  33.0410000
 144.4889408  76.2979408  34.1450000 145.6729408  80.8899408  53.2500000
 145.9379408  81.6929408  52.8020000 145.0279408  80.4909408  52.6670000
 148.0719408  75.0429408  44.1250000 148.3279408  74.1539408  43.8810000
 148.7059408  75.6059408  43.6790000 141.4969408  77.6769408  38.9910000
 140.6869408  77.9649408  39.4120000 141.2069408  77.1699408  38.2330000
 141.3089408  81.2979408  40.9070000 140.3719408  81.3809408  41.0840000
 141.3559408  80.9219408  40.0280000 139.9409408  85.9629408  58.3800000
 139.0549408  86.3189408  58.3170000 140.3819408  86.2749408  57.5900000
 142.7679408  79.3119408  47.3790000 142.3009408  80.0629408  47.0110000
 143.4259408  79.6989408  47.9570000 143.7039408  77.7479408  40.5130000
 144.1529408  76.9339408  40.2860000 142.9529408  77.7799408  39.9200000
 147.4709408  85.8359408  36.5070000 147.7579408  84.9329408  36.6370000
 147.3959408  85.9299408  35.5570000 147.1539408  85.2229408  48.8610000
 147.2309408  84.5909408  48.1470000 147.9429408  85.7599408  48.7930000
 148.9979408  75.2499408  47.3840000 148.6679408  75.0439408  48.2580000
 148.5579408  74.6249408  46.8080000 137.0249408  82.7099408  47.6690000
 136.8809408  82.0149408  47.0260000 136.7759408  83.5139408  47.2140000
 145.5159408  62.1409408  32.2740000 144.6969408  62.6339408  32.2290000
 145.2789408  61.3189408  32.7030000 147.8379408  76.4779408  34.9610000
 147.1649408  76.4449408  34.2810000 148.2269408  77.3489408  34.8720000
 138.1619408  71.4479408  48.1310000 138.1129408  71.6889408  49.0560000
 139.0279408  71.7449408  47.8520000 131.7949408  64.1809408  45.4660000
 131.0579408  64.3869408  46.0420000 132.4969408  64.7619408  45.7580000
 144.6279408  89.7129408  33.2650000 143.6809408  89.5999408  33.3410000
 144.9819408  89.3039408  34.0550000 144.1549408  88.4689408  38.6710000
 144.9869408  87.9959408  38.6860000 143.5239408  87.8559408  39.0480000
 147.6299408  88.3429408  37.5860000 147.5669408  87.3909408  37.5050000
 147.5549408  88.5079408  38.5260000 146.7179408  83.2369408  47.1170000
 147.0469408  83.5299408  46.2670000 146.4409408  82.3329408  46.9690000
 148.6429408  83.4169408  32.1320000 149.5469408  83.7219408  32.2000000
 148.2299408  84.0239408  31.5180000 149.7119408  87.0349408  48.1520000
 149.5509408  87.4989408  47.3300000 149.2639408  87.5589408  48.8150000
 145.3029408  86.0099408  41.7730000 145.0519408  85.5969408  40.9470000
 144.6769408  86.7259408  41.8830000 145.1669408  85.1589408  31.8110000
 144.2559408  84.8679408  31.8270000 145.3879408  85.2049408  30.8810000
 141.1539408  87.1659408  36.5480000 141.4189408  86.9389408  35.6570000
 141.5359408  88.0299408  36.7000000 137.0539408  86.8609408  58.2050000
 136.3929408  87.1089408  58.8510000 136.5519408  86.4939408  57.4770000
 136.0469408  64.5639408  45.7710000 136.0809408  64.5099408  46.7260000
 135.4529408  65.2939408  45.5940000 148.6919408  79.2009408  33.8620000
 149.5599408  78.8229408  33.7170000 148.1619408  78.8679408  33.1380000
 147.3199408  78.8899408  31.5420000 147.8129408  79.1749408  30.7720000
 147.3469408  77.9339408  31.5040000 141.9069408  80.2649408  38.2860000
 141.7919408  79.3209408  38.3890000 142.4119408  80.3589408  37.4790000
 140.8209408  85.7819408  41.5460000 140.6039408  85.9449408  40.6280000
 140.7959408  86.6459408  41.9560000 147.3569408  61.1799408  36.2670000
 147.6309408  61.6629408  35.4870000 148.0139408  60.4909408  36.3660000
 147.5929408  88.9229408  40.4380000 147.4519408  89.3709408  41.2720000
 148.5019408  88.6269408  40.4740000 132.2699408  76.4249408  58.7760000
 132.9509408  77.0969408  58.8060000 132.4539408  75.9319408  57.9760000
 149.5049408  69.6089408  33.9390000 149.2369408  69.4409408  33.0360000
 150.3389408  69.1489408  34.0320000 144.9399408  88.5519408  42.8940000
 145.6679408  88.0659408  43.2810000 145.3499408  89.3119408  42.4820000
 146.2609408  80.5759408  46.5330000 145.9599408  79.7359408  46.1870000
 147.1519408  80.4039408  46.8380000 120.1289408  60.2789408  36.1440000
 120.1339408  60.2069408  35.1890000 120.6739408  59.5509408  36.4420000
 143.6379408  89.1839408  57.3740000 143.8629408  88.6559408  58.1400000
 143.7149408  90.0889408  57.6760000 137.8029408  61.4979408  32.0150000
 137.8179408  61.3079408  32.9530000 137.9959408  60.6579408  31.5970000
 144.8339408  78.1349408  45.5300000 145.1179408  77.2749408  45.8380000
 144.2629408  78.4619408  46.2250000 145.9399408  83.0769408  40.1740000
 145.0409408  82.8989408  40.4490000 145.8779408  83.8789408  39.6550000
 127.8459408  64.6539408  58.8310000 128.2209408  64.7389408  59.7070000
 127.3629408  63.8279408  58.8550000 141.0919408  62.8469408  57.7180000
 141.6289408  62.2659408  58.2570000 141.7059408  63.5029408  57.3870000
 139.0939408  85.2559408  47.6310000 138.8449408  85.5209408  48.5160000
 138.5189408  84.5169408  47.4310000 144.6889408  86.4959408  53.9890000
 145.4609408  86.4079408  53.4300000 144.0209408  85.9579408  53.5630000
 139.7889408  87.3129408  53.2930000 140.5389408  87.1429408  52.7230000
 139.6029408  88.2449408  53.1720000 146.0789408  88.6559408  35.3270000
 146.5179408  88.9459408  36.1270000 146.5309408  87.8469408  35.0860000
 141.9989408  87.5469408  31.0180000 142.9239408  87.6119408  30.7810000
 141.7279408  86.6889408  30.6910000 148.7029408  83.2359408  50.3090000
 149.5569408  83.6369408  50.1500000 148.0819408  83.8059408  49.8540000
 139.1839408  82.3919408  49.3730000 138.8759408  82.0519408  50.2130000
 138.3959408  82.4469408  48.8330000 148.9259408  79.3549408  59.1130000
 148.4939408  79.0299408  58.3230000 149.7449408  78.8629408  59.1590000
 142.4529408  82.8319408  54.3870000 143.2899408  83.2969408  54.4070000
 141.9209408  83.3219408  53.7600000 149.3329408  80.1069408  39.6110000
 150.1389408  80.5079408  39.2850000 148.7129408  80.1949408  38.8870000
 149.7389408  61.2499408  52.7270000 149.9719408  60.5979408  52.0660000
 148.7969408  61.1349408  52.8560000 146.4009408  70.1289408  59.6700000
 146.3809408  70.6799408  60.4520000 146.2529408  70.7369408  58.9450000
 149.0999408  86.4319408  55.9860000 148.5239408  86.4859408  56.7480000
 148.5919408  85.9469408  55.3350000 147.4289408  84.6289408  54.5640000
 146.6139408  84.5409408  54.0710000 147.3679408  83.9629408  55.2490000
 146.4519408  78.2429408  53.9800000 146.5979408  79.0739408  53.5290000
 145.5169408  78.0689408  53.8690000 146.6279408  65.1689408  60.1560000
 145.8039408  64.7719408  59.8740000 146.6229408  66.0389408  59.7570000
 143.8769408  81.7659408  57.1800000 144.5629408  82.2469408  56.7180000
 143.0929408  82.3049408  57.0720000 148.0669408  75.0089408  50.1910000
 148.0739408  75.9439408  49.9830000 147.1889408  74.8459408  50.5340000
 146.0639408  77.5379408  58.8710000 146.7539408  76.9079408  58.6660000
 146.4249408  78.3839408  58.6060000 149.9059408  88.0329408  51.8660000
 149.3759408  88.3819408  52.5830000 150.0419408  87.1129408  52.0930000
 147.5559408  83.3009408  58.4550000 148.1949408  83.8009408  58.9620000
 148.0589408  82.9369408  57.7270000 147.8099408  77.9179408  56.6380000
 147.3599408  78.3039408  55.8870000 147.8709408  76.9859408  56.4280000
 140.8229408  80.4389408  54.5460000 141.4419408  81.1659408  54.6110000
 140.8099408  80.2179408  53.6140000 146.1169408  60.6769408  56.5390000
 145.8869408  60.0879408  55.8210000 146.9099408  60.2969408  56.9170000
 144.0979408  72.2559408  59.3850000 143.7049408  73.1289408  59.3770000
 143.3609408  71.6629408  59.5350000 123.7959408  62.6399408  31.5360000
 123.1589408  63.0979408  30.9870000 123.2689408  62.0539408  32.0780000
 149.0779408  82.0099408  56.4940000 149.7929408  81.5059408  56.8830000
 149.4689408  82.4279408  55.7270000 146.4579408  82.1029408  55.8250000
 147.2999408  81.6859408  56.0080000 146.1359408  81.6579408  55.0400000
 144.2699408  89.2149408  54.6630000 144.2869408  88.9489408  55.5820000
 144.4699408  88.4149408  54.1780000 139.3969408  82.8279408  55.2380000
 139.5079408  82.1059408  54.6190000 140.1119408  82.7199408  55.8640000
 140.7379408  63.9019408  50.2470000 140.8629408  63.9519408  49.3000000
 141.6089408  64.0529408  50.6130000 149.0199408  88.8129408  54.3330000
 149.8619408  89.1639408  54.6250000 148.8459408  88.0819408  54.9260000
 136.8359408  61.2099408  57.0900000 137.4759408  60.5949408  57.4500000
 137.1229408  62.0669408  57.4050000 146.1579408  86.4039408  33.9090000
 145.6669408  87.2129408  34.0520000 145.8099408  86.0549408  33.0890000
 137.0399408  88.4119408  54.8180000 137.5809408  88.5059408  55.6020000
 137.1749408  87.5059408  54.5410000 143.6199408  84.9529408  52.0760000
 142.8519408  84.5989408  51.6270000 144.1499408  85.3379408  51.3780000
 141.2529408  83.5169408  50.7880000 140.5179408  83.0819408  50.3570000
 140.8559408  83.9929408  51.5170000 144.4219408  69.4159408  50.1160000
 145.2529408  69.6309408  50.5400000 143.7539408  69.7569408  50.7110000
 138.5739408  86.5729408  49.9790000 139.3969408  87.0059408  50.2050000
 137.9349408  86.9379408  50.5900000 143.9579408  61.6669408  53.3620000
 143.0839408  61.9459408  53.6370000 144.0009408  60.7409408  53.6010000
 148.8059408  76.1259408  59.0390000 149.4149408  76.8549408  58.9240000
 149.3669408  75.3549408  59.1220000 143.5929408  80.4459408  36.1030000
 144.4549408  80.0469408  36.2220000 143.6239408  80.8299408  35.2270000
 141.0189408  81.9559408  47.3460000 140.6409408  82.0609408  48.2200000
 141.4569408  82.7889408  47.1720000 149.3579408  66.4659408  51.7420000
 148.9689408  66.1709408  50.9190000 149.0259408  65.8529408  52.3980000
 144.5659408  87.9129408  59.5880000 144.9279408  87.0679408  59.3220000
 145.1819408  88.2429408  60.2420000 142.3159408  60.6029408  30.0200000
 142.8489408  60.3259408  30.7650000 142.9519408  60.8169408  29.3370000
 122.0639408  62.4419408  49.6400000 122.0359408  63.1009408  48.9460000
 121.3919408  61.8059408  49.3950000 136.0279408  89.2599408  48.5900000
 135.0909408  89.1729408  48.4130000 136.1359408  88.9249408  49.4800000
 140.3859408  84.2079408  53.2040000 140.0829408  85.1069408  53.3300000
 139.8389408  83.6859408  53.7910000 133.1139408  89.2469408  48.1040000
 133.4209408  88.6579408  47.4150000 132.3449408  89.6749408  47.7280000
 124.1209408  73.6749408  73.7610000 124.0209408  74.4239408  74.3480000
 124.6659408  73.0579408  74.2490000 139.4019408  77.0039408  63.4620000
 139.3069408  76.1259408  63.8320000 138.6369408  77.1089408  62.8970000
 141.1249408  61.1489408  81.7350000 140.9649408  60.2999408  81.3230000
 141.6349408  61.6379408  81.0890000 126.7109408  78.7099408  81.4700000
 126.3839408  79.3649408  82.0880000 127.6529408  78.8729408  81.4250000
 131.8849408  71.9679408  72.0810000 131.2899408  71.2449408  72.2800000
 132.7569408  71.5759408  72.1090000 125.8789408  66.9689408  68.7010000
 125.4139408  66.1719408  68.4480000 125.9029408  67.4959408  67.9020000
 135.1049408  77.8279408  75.6050000 134.2939408  77.6459408  75.1300000
 135.7899408  77.7719408  74.9380000 120.6359408  74.0729408  68.5360000
 119.8129408  74.3929408  68.1640000 120.9089408  73.3719408  67.9450000
 138.8559408  78.6129408  69.2840000 138.4689408  78.1719408  70.0410000
 138.1489408  79.1559408  68.9360000 129.0639408  68.6819408  77.8260000
 128.4579408  68.2489408  78.4280000 129.3939408  67.9759408  77.2700000
 131.2259408  71.3479408  65.7040000 130.6419408  71.7979408  66.3140000
 131.6789408  70.6969408  66.2400000 137.4669408  75.2269408  77.9080000
 137.9479408  75.1439408  78.7320000 138.1319408  75.1079408  77.2300000
 142.0799408  69.5039408  66.3360000 141.9909408  69.7379408  65.4120000
 142.7389408  70.1109408  66.6740000 125.6149408  73.6859408  68.9500000
 125.7649408  73.7169408  69.8950000 124.7539408  74.0859408  68.8300000
 149.3079408  78.9599408  75.2020000 149.6479408  79.5329408  75.8900000
 149.8979408  79.0979408  74.4610000 132.9309408  85.5519408  74.1980000
 133.8639408  85.3599408  74.1090000 132.5239408  85.1209408  73.4470000
 148.0369408  65.5629408  65.5490000 147.0969408  65.6829408  65.4130000
 148.2159408  64.6789408  65.2300000 138.3629408  81.3589408  60.6810000
 137.7089408  82.0489408  60.5670000 138.2789408  80.8169408  59.8970000
 130.6849408  75.9839408  66.6650000 131.1339408  76.8249408  66.7490000
 129.8769408  76.0929408  67.1670000 148.7999408  69.9389408  75.7730000
 147.8609408  69.9999408  75.5990000 148.8569408  69.5959408  76.6650000
 122.3889408  80.7699408  63.8460000 123.1819408  81.3059408  63.8470000
 122.6729408  79.9199408  64.1820000 137.9779408  74.4559408  70.6650000
 137.2519408  74.3639408  70.0480000 137.7039408  73.9559408  71.4340000
 133.5299408  74.6779408  60.5350000 132.9009408  73.9769408  60.7060000
 133.0779408  75.2629408  59.9270000 136.9329408  82.0279408  73.3670000
 137.2779408  82.9039408  73.1980000 137.6629408  81.4399408  73.1730000
 131.7599408  83.1179408  68.5430000 131.6899408  83.8819408  67.9720000
 132.0759408  82.4179408  67.9710000 134.5309408  86.0489408  61.8910000
 135.1549408  86.0429408  61.1650000 134.9719408  85.5639408  62.5890000
 121.5889408  67.8679408  65.1380000 121.9129408  67.0799408  64.7030000
 122.3749408  68.2939408  65.4810000 124.3779408  61.6949408  76.6380000
 123.4469408  61.8319408  76.4640000 124.7679408  61.5709408  75.7730000
 131.0189408  62.1809408  78.1460000 130.7569408  63.1019408  78.1390000
 131.6919408  62.1279408  78.8240000 135.1549408  60.6799408  68.8720000
 134.7649408  61.4279408  68.4200000 135.0899408  59.9599408  68.2450000
 135.4189408  74.0349408  73.0950000 134.8099408  73.9809408  73.8320000
 134.8679408  74.2559408  72.3440000 126.8749408  86.9259408  69.7580000
 127.0919408  87.8089408  70.0560000 127.0169408  86.9499408  68.8120000
 148.5349408  75.5709408  67.6430000 148.4489408  76.1489408  66.8850000
 148.1879408  76.0809408  68.3750000 128.3539408  66.3839408  63.5020000
 129.0179408  66.9059408  63.0520000 127.9879408  66.9769408  64.1590000
 144.3849408  69.4109408  77.3650000 144.7209408  68.5179408  77.2950000
 144.2909408  69.5589408  78.3060000 127.7939408  73.7699408  67.0920000
 127.1589408  73.5089408  67.7590000 128.3649408  73.0079408  66.9930000
 129.0859408  62.8069408  72.3010000 129.2659408  63.2629408  71.4790000
 129.7729408  63.1059408  72.8980000 135.8509408  73.9929408  69.0110000
 135.1649408  74.5659408  68.6690000 135.4019408  73.1709408  69.2080000
 127.6489408  77.3009408  72.5020000 127.1329408  77.8939408  73.0490000
 127.6139408  76.4609408  72.9600000 142.4549408  63.6049408  62.6640000
 141.6819408  63.5749408  62.1000000 142.7979408  64.4919408  62.5530000
 141.2289408  80.5009408  74.9470000 140.8759408  81.0379408  75.6570000
 141.9479408  81.0209408  74.5870000 124.6869408  63.6109408  72.3470000
 123.8339408  63.9499408  72.0730000 125.2309408  64.3909408  72.4540000
 131.3659408  80.8169408  72.9800000 131.3449408  81.5859408  72.4090000
 132.2869408  80.5579408  72.9990000 135.5709408  64.5019408  83.2080000
 136.1229408  65.1429408  82.7600000 135.2669408  63.9189408  82.5130000
 134.5329408  79.5259408  67.8070000 134.0209408  78.9609408  68.3850000
 133.9069408  80.1799408  67.4950000 124.9169408  74.0799408  66.0540000
 125.2429408  73.2809408  66.4690000 124.3959408  74.5079408  66.7330000
 131.9419408  64.9309408  78.4310000 132.8109408  65.3169408  78.3240000
 131.7659408  64.9919408  79.3700000 122.9999408  83.7209408  64.9930000
 122.5599408  83.1309408  65.6050000 123.7909408  83.2499408  64.7310000
 129.3909408  65.9979408  73.5600000 128.4679408  65.8209408  73.7410000
 129.5449408  65.6099408  72.6990000 126.4589408  79.0469408  74.2110000
 125.7969408  78.9559408  74.8960000 127.0899408  79.6709408  74.5690000
 132.7269408  64.7419408  73.0350000 133.5559408  64.2759408  72.9230000
 132.3699408  64.4009408  73.8560000 130.9189408  75.5149408  71.9010000
 130.0709408  75.1079408  71.7250000 130.7289408  76.4519408  71.9560000
 131.2779408  68.6519408  69.3500000 131.3409408  67.9429408  69.9910000
 130.6729408  69.2789408  69.7440000 127.3769408  88.8119408  61.6800000
 126.6809408  88.2869408  61.2850000 127.2869408  88.6599408  62.6210000
 135.6899408  78.6069408  64.5490000 135.8669408  78.6029408  63.6090000
 136.2479408  77.9129408  64.9010000 126.0069408  60.8799408  64.4630000
 126.8559408  60.4709408  64.2940000 126.1609408  61.8149408  64.3310000
 129.4119408  68.7209408  66.5640000 129.9009408  68.4549408  67.3430000
 130.0189408  69.2819408  66.0810000 130.9679408  78.3959408  75.9660000
 131.6029408  77.8829408  75.4660000 130.1389408  77.9329408  75.8490000
 129.0729408  70.0809408  69.9790000 129.3089408  70.3209408  70.8750000
 128.1399408  69.8699408  70.0250000 128.6629408  83.0849408  65.7270000
 129.1639408  82.7029408  66.4480000 129.3049408  83.2099408  65.0280000
 132.1909408  63.0269408  66.6490000 132.5829408  63.5069408  67.3790000
 132.8259408  62.3399408  66.4440000 122.7639408  70.3209408  75.9390000
 122.1979408  70.7929408  75.3280000 122.1579408  69.8679408  76.5260000
 123.7929408  65.9289408  78.5460000 124.5359408  65.3939408  78.2680000
 123.0419408  65.5539408  78.0850000 127.2649408  65.4869408  70.7700000
 126.6499408  66.0649408  70.3180000 127.6409408  64.9459408  70.0760000
 124.4899408  64.3149408  68.6110000 123.8189408  63.6769408  68.8510000
 124.7519408  64.0669408  67.7250000 138.2059408  71.1969408  71.0920000
 138.7899408  71.1579408  70.3350000 137.3289408  71.0939408  70.7250000
 132.6159408  62.7419408  62.6460000 132.2479408  63.1119408  61.8440000
 133.2749408  63.3789408  62.9240000 123.9959408  70.0319408  79.2360000
 124.7059408  69.4889408  78.8920000 124.1359408  70.8909408  78.8370000
 133.6049408  69.6929408  63.1680000 134.0819408  68.9459408  63.5280000
 134.2209408  70.4239408  63.2310000 130.6809408  71.2849408  60.4750000
 130.9629408  71.9649408  59.8630000 130.5939408  71.7389408  61.3140000
 126.1979408  88.7859408  67.3920000 125.6229408  89.3219408  67.9370000
 126.9389408  89.3569408  67.1890000 135.6389408  66.6119408  68.9870000
 135.6199408  66.6119408  69.9440000 136.5409408  66.8459408  68.7660000
 136.1629408  80.3279408  69.8410000 135.8969408  80.1039408  68.9500000
 135.7949408  79.6309408  70.3840000 138.8369408  79.6889408  73.6890000
 139.6529408  79.8079408  74.1740000 139.0429408  79.9709408  72.7980000
 127.3569408  74.9479408  74.1060000 126.7409408  74.6609408  74.7800000
 127.7119408  74.1349408  73.7450000 142.1589408  71.9809408  68.6940000
 142.2029408  72.9319408  68.6020000 142.8179408  71.6489408  68.0840000
 121.5759408  61.8369408  72.3790000 121.6699408  61.3979408  71.5340000
 121.7809408  62.7539408  72.1980000 129.7979408  73.5629408  80.7020000
 129.9119408  72.6129408  80.6900000 130.2249408  73.8659408  79.9000000
 132.6309408  73.1459408  74.3340000 132.2629408  73.3379408  73.4710000
 132.9819408  72.2589408  74.2530000 130.1429408  68.5439408  62.9460000
 130.7999408  68.6049408  62.2530000 130.5939408  68.8529408  63.7320000
 124.7069408  75.4199408  83.1280000 124.5639408  75.8999408  82.3120000
 124.9709408  76.0909408  83.7570000 122.9149408  76.4549408  74.3630000
 123.5279408  77.1049408  74.7050000 122.2449408  76.3749408  75.0420000
 129.9729408  61.6209408  69.1660000 130.8859408  61.7839408  68.9290000
 130.0159408  61.2549408  70.0490000 132.5159408  69.3919408  67.0440000
 132.9239408  68.9559408  66.2950000 132.6179408  68.7729408  67.7670000
 140.6819408  74.5549408  70.8580000 140.4699408  74.9719408  71.6930000
 139.8309408  74.3559408  70.4670000 125.0659408  72.1979408  78.1450000
 125.8319408  71.7159408  77.8330000 124.6889408  72.5859408  77.3550000
 124.4699408  66.9909408  81.0950000 124.3759408  66.7169408  80.1820000
 124.4599408  67.9469408  81.0610000 136.7989408  68.8369408  81.9130000
 136.1259408  68.2629408  81.5470000 137.3839408  68.2479408  82.3890000
 137.3339408  61.3149408  77.3720000 137.1459408  62.1649408  77.7700000
 136.5919408  60.7639408  77.6200000 124.3569408  84.6489408  73.1330000
 125.1819408  85.0809408  72.9100000 123.8739408  85.2999408  73.6410000
 126.0859408  74.8579408  71.4430000 125.4669408  75.3769408  70.9300000
 125.9959408  75.1919408  72.3360000 133.4409408  76.1729408  68.5040000
 133.3789408  75.9409408  67.5780000 132.7799408  76.8539408  68.6260000
 128.5019408  64.1379408  68.6120000 128.8629408  64.4539408  67.7840000
 128.9809408  63.3279408  68.7890000 129.2219408  89.9579408  79.5540000
 129.1209408  89.3189408  78.8490000 129.7729408  90.6449408  79.1780000
 125.8979408  86.1729408  75.7840000 124.9769408  86.4009408  75.6590000
 126.2559408  86.1269408  74.8980000 124.1719408  68.0399408  66.5580000
 123.5999408  68.3309408  67.2680000 124.3229408  68.8259408  66.0330000
 140.9309408  68.1219408  77.8530000 140.4899408  68.4399408  78.6410000
 141.2959408  68.9089408  77.4480000 123.5469408  89.1949408  74.3880000
 123.4529408  88.7309408  73.5560000 124.0779408  89.9629408  74.1760000
 127.6459408  75.5889408  60.5610000 128.1379408  74.9059408  61.0160000
 128.1499408  76.3889408  60.7110000 129.7719408  62.8839408  65.6410000
 130.6209408  62.7349408  66.0590000 129.7999408  62.3549408  64.8440000
 129.0259408  76.3989408  75.6100000 128.7289408  76.0099408  76.4320000
 128.4029408  76.0809408  74.9560000 144.9449408  70.7089408  82.4340000
 144.4059408  70.1399408  82.9830000 144.3479408  71.3989408  82.1430000
 132.9919408  66.0789408  80.9050000 133.2669408  66.9929408  80.8340000
 133.4549408  65.7489408  81.6750000 139.7759408  77.0209408  66.7930000
 139.6259408  77.7959408  66.2530000 139.1299408  77.0889408  67.4960000
 144.9269408  75.3199408  69.5870000 145.3159408  74.5869408  70.0650000
 145.3279408  75.2809408  68.7190000 125.7419408  71.5499408  72.2860000
 125.5099408  71.7689408  73.1890000 126.5849408  71.9799408  72.1450000
 149.0709408  62.3679408  73.5800000 149.1899408  62.7229408  74.4610000
 149.9599408  62.2269408  73.2550000 135.3469408  67.8619408  73.5700000
 135.5059408  67.1419408  72.9600000 136.2199408  68.1279408  73.8590000
 133.9419408  87.7469408  71.2050000 133.6119408  87.6369408  72.0970000
 133.2129408  88.1429408  70.7270000 122.4759408  73.4329408  71.5170000
 122.9669408  73.3179408  72.3310000 122.3929408  74.3819408  71.4200000
 124.0809408  70.9719408  70.1910000 123.3579408  71.5829408  70.3280000
 124.6869408  71.1519408  70.9110000 122.4699408  62.2689408  69.4860000
 121.9209408  63.0069408  69.2190000 121.8819408  61.5139408  69.4670000
 123.0199408  76.0899408  71.5960000 122.9749408  76.1599408  72.5500000
 123.1089408  76.9939408  71.2930000 132.5739408  74.1909408  76.7410000
 132.6879408  73.7449408  75.9010000 133.3929408  74.6689408  76.8720000
 129.4949408  75.9309408  63.8740000 129.7659408  75.7989408  64.7830000
 129.9059408  76.7569408  63.6190000 128.0449408  78.2839408  77.2700000
 127.8129408  77.5769408  77.8720000 128.2419408  77.8409408  76.4450000
 128.0199408  61.0509408  74.0630000 128.1869408  61.8039408  73.4960000
 128.5849408  61.1939408  74.8240000 132.3299408  83.4389408  64.0320000
 131.5709408  82.9229408  63.7610000 133.0749408  83.0059408  63.6160000
 123.8559408  88.2669408  66.1100000 123.5329408  89.1219408  65.8250000
 124.7399408  88.4389408  66.4320000 122.1229408  82.1309408  77.8600000
 122.8419408  81.8089408  77.3180000 122.3069408  83.0629408  77.9750000
 138.9909408  68.3469408  65.9690000 139.9089408  68.3779408  66.2400000
 138.8449408  67.4349408  65.7200000 125.8029408  76.0779408  64.3120000
 126.5949408  75.6419408  63.9980000 125.6179408  75.6609408  65.1540000
 135.6349408  71.6509408  63.7230000 136.4549408  71.1739408  63.8460000
 135.4639408  72.0589408  64.5730000 133.6209408  75.0579408  71.2560000
 132.8359408  75.3699408  71.7060000 133.5009408  75.3309408  70.3470000
 126.7349408  70.4089408  76.9120000 127.6709408  70.2119408  76.8740000
 126.3309408  69.5979408  77.2210000 129.1019408  79.7299408  82.1000000
 129.8669408  79.3959408  81.6300000 129.3469408  80.6199408  82.3550000
 133.4439408  60.5639408  65.1250000 134.2609408  60.5429408  65.6220000
 133.7179408  60.5099408  64.2090000 128.1309408  77.3219408  69.6840000
 128.1119408  78.2399408  69.4110000 127.9969408  77.3509408  70.6310000
 131.8609408  68.8709408  60.8180000 131.4729408  69.7019408  60.5460000
 132.8049408  69.0259408  60.7920000 134.0549408  80.7059408  79.8650000
 133.1819408  80.5199408  80.2090000 134.1139408  80.1809408  79.0660000
 128.7819408  74.8269408  70.5120000 127.8989408  74.6719408  70.8490000
 128.7299408  75.6859408  70.0920000 145.7759408  75.5769408  75.5950000
 146.5949408  75.4519408  75.1160000 145.8309408  74.9639408  76.3280000
 134.7319408  65.0299408  66.7360000 135.2879408  64.2539408  66.6670000
 135.2679408  65.6689408  67.2060000 134.8019408  75.4929408  76.8610000
 134.9129408  76.3009408  76.3600000 135.6729408  75.3059408  77.2110000
 147.4529408  72.4809408  72.6510000 146.9679408  71.6609408  72.7380000
 148.3159408  72.2169408  72.3320000 139.8039408  70.9529408  68.8190000
 140.7069408  71.2619408  68.7410000 139.2889408  71.5889408  68.3220000
 133.6759408  72.0399408  68.3110000 132.9579408  72.4469408  68.7970000
 133.3909408  71.1369408  68.1740000 124.4319408  59.9699408  69.1520000
 124.9539408  60.3289408  69.8690000 123.7079408  60.5879408  69.0490000
 123.1979408  75.2869408  67.9950000 122.5999408  75.4139408  67.2590000
 122.7259408  74.7069408  68.5910000 133.4919408  70.2479408  75.4210000
 134.1179408  70.9619408  75.5410000 134.0109408  69.5349408  75.0460000
 148.8019408  66.7519408  75.1170000 148.5949408  66.3399408  74.2790000
 147.9779408  67.1509408  75.3980000 126.3509408  72.5299408  80.8020000
 125.7639408  72.6359408  80.0530000 126.8079408  73.3679408  80.8690000
 122.1939408  62.4329408  75.0200000 121.9859408  62.0149408  74.1840000
 122.7589408  63.1699408  74.7850000 140.3539408  61.1919408  74.3940000
 141.2449408  61.0649408  74.0680000 140.3279408  62.1089408  74.6690000
 132.9529408  78.1909408  64.7110000 132.8259408  78.4779408  65.6150000
 133.8859408  78.3269408  64.5450000 131.2079408  73.2309408  69.6310000
 131.4929408  73.1859408  70.5430000 130.4689408  73.8389408  69.6400000
 125.2889408  76.5969408  61.2440000 126.1979408  76.4009408  61.4730000
 125.0949408  76.0109408  60.5130000 125.9609408  61.2959408  70.8390000
 126.7089408  61.8909408  70.8830000 125.2019408  61.8499408  71.0230000
 134.0369408  69.3019408  70.0320000 133.0859408  69.2279408  69.9500000
 134.3769408  68.5189408  69.5980000 133.8409408  75.9929408  79.9150000
 133.3829408  75.6059408  79.1690000 134.1529408  76.8389408  79.5910000
 137.9259408  73.8949408  74.1400000 136.9729408  73.9149408  74.2200000
 138.2449408  74.1439408  75.0080000 137.9639408  64.7779408  60.3340000
 137.0519408  65.0459408  60.4500000 138.1979408  64.3589408  61.1630000
 126.0819408  71.7559408  63.1260000 125.2619408  72.2489408  63.0890000
 126.7199408  72.3779408  63.4750000 140.7849408  71.9599408  77.6010000
 141.3309408  71.2469408  77.2700000 140.9109408  72.6709408  76.9720000
 136.0959408  70.7469408  69.5820000 135.3069408  70.3579408  69.9590000
 136.3329408  70.1619408  68.8630000 131.8799408  71.9409408  63.1400000
 131.5959408  71.9629408  64.0530000 132.2839408  71.0799408  63.0340000
 130.6029408  78.1769408  72.3180000 129.6709408  78.0139408  72.4610000
 130.6839408  79.1309408  72.3230000 136.8019408  80.5669408  75.9690000
 137.5409408  79.9729408  75.8380000 136.7199408  81.0359408  75.1380000
 126.3819408  63.8779408  66.2780000 126.8239408  64.1609408  67.0780000
 126.7769408  64.4079408  65.5850000 137.8219408  70.6709408  84.7140000
 137.0509408  70.2079408  84.3860000 138.5589408  70.2549408  84.2680000
 140.9929408  76.8169408  61.4860000 141.3499408  77.6909408  61.3270000
 140.4049408  76.9299408  62.2320000 147.1529408  73.0869408  76.5300000
 147.5009408  72.5009408  77.2020000 146.4709408  72.5749408  76.0950000
 148.4819408  70.9349408  69.6410000 148.8959408  71.1749408  70.4700000
 148.9019408  71.4979408  68.9910000 134.8989408  86.5689408  68.8670000
 134.8359408  86.8249408  69.7880000 134.8469408  85.6129408  68.8800000
 126.4319408  69.2409408  69.6680000 125.6539408  69.7959408  69.6110000
 126.1929408  68.4429408  69.1960000 137.9739408  70.1959408  64.3400000
 138.5639408  70.9399408  64.4650000 138.2259408  69.5729408  65.0210000
 134.5639408  71.3319408  72.5050000 135.3129408  71.9219408  72.4160000
 134.8419408  70.5249408  72.0710000 125.8949408  79.3489408  70.4970000
 125.2319408  79.5939408  71.1420000 125.4229408  78.8129408  69.8600000
 130.5329408  64.8369408  71.0850000 130.4469408  65.5079408  70.4070000
 131.3799408  65.0149408  71.4930000 128.3729408  83.4639408  73.1860000
 129.1639408  83.9339408  72.9220000 127.6539408  83.9979408  72.8490000
 128.0019408  73.8009408  64.2870000 128.6839408  74.4149408  64.0160000
 127.9259408  73.9279408  65.2330000 128.5919408  80.0079408  71.6570000
 127.6919408  79.6829408  71.6220000 128.5009408  80.9549408  71.7650000
 128.5059408  89.5499408  64.7200000 129.2599408  89.8159408  64.1930000
 128.6619408  89.9459408  65.5770000 124.0379408  87.2559408  69.9530000
 124.9729408  87.0479408  69.9550000 123.9999408  88.1869408  69.7350000
 137.8569408  65.7969408  66.3200000 138.7739408  65.6119408  66.1180000
 137.3679408  65.4069408  65.5960000 129.6499408  71.8419408  67.8760000
 130.4039408  72.2779408  68.2730000 129.2779408  71.3139408  68.5820000
 137.8409408  71.3329408  81.0730000 137.5779408  70.4969408  81.4570000
 137.0239408  71.8229408  80.9800000 136.4069408  63.6289408  79.0480000
 137.1099408  64.2789408  79.0450000 136.1969408  63.5069408  79.9740000
 131.6449408  68.1269408  83.6070000 131.9199408  67.4939408  84.2710000
 131.9309408  68.9729408  83.9510000 138.3389408  68.6359408  77.0160000
 138.1949408  69.4509408  77.4970000 139.2549408  68.4159408  77.1850000
 127.8239408  69.7049408  61.9020000 128.6989408  69.3949408  62.1340000
 127.3699408  69.7939408  62.7400000 133.4879408  68.3599408  77.7820000
 132.5719408  68.4729408  78.0380000 133.7179408  69.1799408  77.3450000
 147.1329408  73.4899408  66.5760000 146.2129408  73.7239408  66.4540000
 147.5309408  74.2739408  66.9540000 125.3919408  69.8369408  81.5440000
 124.4879408  70.0839408  81.7380000 125.8819408  70.6569408  81.5990000
 135.6989408  73.6459408  81.5090000 134.9289408  74.2119408  81.4530000
 135.7449408  73.3939408  82.4310000 125.3759408  65.8509408  64.5400000
 125.9379408  66.5929408  64.3170000 125.1269408  66.0039408  65.4520000
 141.4999408  80.8909408  81.6630000 141.5299408  81.8449408  81.5890000
 141.2169408  80.5929408  80.7990000 136.1989408  72.7839408  84.3270000
 136.9519408  72.3809408  84.7590000 135.5079408  72.1229408  84.3830000
 140.3079408  72.6819408  81.5200000 139.5659408  72.7069408  82.1230000
 140.0339408  73.2229408  80.7790000 143.5869408  71.2759408  63.3410000
 142.6949408  71.6219408  63.3230000 144.1119408  71.9439408  62.9000000
 127.8799408  86.0279408  83.7110000 128.5289408  86.2299408  83.0370000
 127.0729408  85.8609408  83.2240000 138.4169408  74.7709408  80.7260000
 138.8399408  75.1919408  81.4750000 137.5249408  74.5919408  81.0240000
 134.9759408  75.1649408  83.9550000 135.6309408  75.7189408  83.5300000
 135.4869408  74.4979408  84.4130000 140.1269408  77.4139408  77.2570000
 140.8569408  78.0169408  77.1180000 140.2649408  77.0689408  78.1390000
 137.7229408  69.0149408  74.5310000 138.2079408  69.8399408  74.5330000
 137.7629408  68.7109408  75.4380000 137.0589408  64.2909408  63.6940000
 137.3229408  63.4279408  64.0130000 136.3329408  64.1129408  63.0950000
 132.1429408  73.0499408  83.4810000 132.7959408  73.1569408  82.7890000
 131.8279408  73.9369408  83.6530000 129.2999408  64.7489408  76.6790000
 128.4779408  64.7659408  76.1890000 129.0309408  64.7099408  77.5970000
 130.2849408  69.8869408  72.5980000 130.8409408  69.1149408  72.4900000
 130.1829408  69.9779408  73.5460000 148.8309408  67.2719408  62.2880000
 148.8699408  66.9779408  63.1980000 149.5399408  66.7969408  61.8530000
 137.8369408  65.8009408  78.3520000 138.7399408  65.6199408  78.0890000
 137.7859408  66.7559408  78.3950000 132.3099408  77.8379408  78.4750000
 131.5999408  77.7869408  77.8350000 132.9599408  78.4099408  78.0670000
 141.5769408  70.0929408  73.5580000 140.8019408  70.5149408  73.9290000
 141.6999408  70.5189408  72.7100000 123.0279408  78.2679408  61.4330000
 123.1569408  79.2159408  61.4620000 123.8729408  77.9189408  61.1520000
 125.6639408  68.1749408  78.2520000 126.2629408  67.8789408  78.9380000
 125.1889408  67.3859408  77.9920000 125.9109408  66.2639408  83.1760000
 125.8639408  65.3079408  83.1610000 125.2579408  66.5469408  82.5370000
 123.5549408  72.7819408  63.2750000 122.7219408  72.4139408  63.5720000
 123.4619408  73.7249408  63.4110000 140.1159408  63.8369408  75.0270000
 140.6079408  64.5009408  74.5440000 139.2639408  63.8059408  74.5920000
 129.1499408  89.6889408  82.5040000 129.9349408  90.2339408  82.5540000
 129.1679408  89.3219408  81.6200000 129.0229408  70.0999408  83.4030000
 128.3649408  70.6929408  83.7660000 128.5369408  69.3039408  83.1870000
 122.6359408  69.1879408  72.6550000 122.1249408  69.8089408  73.1730000
 121.9839408  68.6069408  72.2650000 130.1199408  61.7629408  63.4120000
 129.5699408  61.8339408  62.6310000 130.9739408  62.0939408  63.1340000
 144.7679408  66.0699408  77.1460000 143.8289408  66.0299408  76.9640000
 145.1819408  65.7409408  76.3480000 125.1569408  71.4689408  75.1180000
 124.3929408  71.0489408  75.5120000 125.9069408  71.0229408  75.5130000
 136.3049408  77.8459408  78.6500000 136.4699408  78.5339408  78.0040000
 136.6669408  77.0539408  78.2540000 131.4229408  61.4139408  82.3640000
 131.7979408  61.2949408  83.2370000 132.1729408  61.6199408  81.8060000
 124.3739408  62.0349408  82.5920000 125.0449408  62.5869408  82.9950000
 123.7539408  62.6539408  82.2080000 127.8019408  76.5439408  67.0640000
 127.6149408  75.6139408  67.1890000 127.8329408  76.9049408  67.9500000
 132.7309408  72.2139408  78.9580000 132.2289408  71.4239408  78.7610000
 132.6519408  72.7509408  78.1690000 127.4109408  68.2469408  82.5390000
 127.0039408  67.3889408  82.6570000 126.8979408  68.6629408  81.8460000
 138.8269408  63.5309408  82.3500000 138.8589408  62.6169408  82.6340000
 139.3369408  63.5479408  81.5400000 133.0339408  74.4019408  63.2410000
 133.4299408  74.6769408  62.4150000 132.6019408  73.5729408  63.0360000
 134.6579408  61.6439408  84.3280000 135.2989408  61.5509408  85.0330000
 133.8909408  62.0299408  84.7510000 129.2199408  70.8319408  80.8010000
 128.2959408  70.9889408  80.6070000 129.2279408  70.5439408  81.7140000
 128.1889408  77.1529408  83.5900000 129.0689408  77.0679408  83.9560000
 127.9749408  78.0809408  83.6910000 127.2109408  68.0059408  65.3860000
 126.6419408  68.7579408  65.5510000 127.9689408  68.1489408  65.9520000
 141.0649408  69.6399408  62.0140000 141.5329408  69.0169408  62.5690000
 141.5449408  69.6309408  61.1850000 124.8949408  78.8529408  66.4910000
 125.2919408  79.6979408  66.7040000 125.4089408  78.5259408  65.7530000
 120.8779408  89.1329408  61.2170000 121.1779408  89.6449408  60.4660000
 121.0379408  88.2229408  60.9670000 126.9089408  64.5699408  75.4710000
 126.4269408  65.1219408  74.8560000 126.2819408  64.3849408  76.1700000
 136.1519408  76.8349408  66.9130000 135.4469408  76.5409408  66.3350000
 135.7099408  77.0769408  67.7270000 135.4429408  60.1609408  73.2290000
 136.1079408  59.5109408  73.4580000 135.5879408  60.8799408  73.8430000
 144.0269408  79.3799408  81.4100000 144.2849408  78.4959408  81.6720000
 143.1719408  79.5119408  81.8210000 134.3959408  78.1949408  70.7400000
 134.3709408  78.1429408  71.6950000 134.2869408  77.2889408  70.4480000
 124.5679408  72.7609408  83.3450000 124.5269408  73.7069408  83.4870000
 124.8839408  72.6679408  82.4460000 141.5419408  62.2789408  84.3060000
 141.1949408  62.1159408  83.4290000 141.4429408  61.4439408  84.7630000
 134.6329408  83.1429408  70.1660000 134.8209408  83.6079408  69.3500000
 134.7559408  82.2189408  69.9490000 135.3159408  72.0549408  76.3340000
 134.9349408  72.8129408  76.7780000 136.1729408  71.9419408  76.7450000
 142.2929408  77.8109408  83.8080000 142.1829408  77.0259408  84.3450000
 142.7159408  78.4419408  84.3890000 129.7159408  77.2639408  60.6440000
 130.4809408  76.8889408  60.2080000 130.0779408  77.7609408  61.3780000
 127.2109408  71.8149408  84.3940000 126.3699408  72.1359408  84.0660000
 127.5599408  72.5409408  84.9100000 120.1669408  68.8079408  80.3710000
 119.8829408  68.0049408  80.8070000 119.9809408  69.5029408  81.0020000
 131.3649408  69.9299408  78.7550000 130.7509408  69.2719408  78.4300000
 131.2129408  69.9549408  79.7000000 130.7769408  69.9669408  75.3550000
 131.7099408  70.1599408  75.2610000 130.7469408  69.1889408  75.9110000
 139.8279408  75.7489408  73.0870000 140.5869408  75.7009408  73.6680000
 139.2939408  74.9909408  73.3260000 148.4329408  61.3169408  77.7720000
 148.3759408  60.3929408  78.0160000 148.3789408  61.7879408  78.6040000
 136.9629408  76.6139408  82.6300000 136.8069408  77.5369408  82.8310000
 137.8629408  76.5879408  82.3060000 146.9299408  71.9079408  61.8610000
 146.9209408  72.4829408  62.6270000 147.6339408  71.2839408  62.0360000
 135.8339408  63.3109408  61.4930000 136.3929408  62.5349408  61.4550000
 135.4889408  63.4019408  60.6050000 120.8749408  63.4179408  83.9600000
 120.5559408  62.5409408  83.7490000 121.6379408  63.5389408  83.3940000
 133.8929408  79.7199408  77.2500000 133.8199408  80.5249408  76.7370000
 134.7049408  79.3139408  76.9450000 130.5189408  67.1779408  75.9270000
 130.5439408  66.3239408  76.3590000 130.1409408  66.9999408  75.0660000
 135.9109408  87.6449408  80.9300000 135.4609408  86.9469408  80.4540000
 135.2979408  87.8989408  81.6190000 137.6369408  90.0739408  82.6510000
 137.4279408  89.3739408  82.0330000 137.3079408  89.7569408  83.4920000
 127.9469408  67.0969408  79.7360000 127.9239408  66.1409408  79.7090000
 128.7869408  67.3059408  80.1460000 136.8989408  89.9439408  65.6780000
 136.7499408  89.2089408  66.2740000 136.6159408  89.6199408  64.8230000
 121.1219408  66.0539408  69.6410000 120.6489408  66.3209408  68.8530000
 121.9209408  66.5809408  69.6320000 131.1519408  82.9069408  80.7830000
 131.1849408  81.9589408  80.9060000 130.5209408  83.0349408  80.0740000
 131.0869408  85.7069408  67.3250000 130.8939408  86.1889408  68.1280000
 130.7599408  86.2699408  66.6230000 122.6749408  78.7829408  70.9760000
 123.1839408  79.3299408  71.5740000 123.0549408  78.9529408  70.1140000
 133.9669408  75.5319408  65.7910000 134.1179408  74.5939408  65.6770000
 133.3829408  75.7699408  65.0710000 122.1679408  64.6769408  72.0900000
 121.6919408  65.0179408  71.3330000 121.8439408  65.1909408  72.8290000
 129.7219408  88.0699408  68.6160000 129.4219408  88.0619408  67.7080000
 129.1469408  88.6979408  69.0530000 131.7279408  80.3879408  81.2710000
 131.6209408  79.5149408  80.8940000 132.3419408  80.2629408  81.9960000
 148.0529408  85.8899408  72.2050000 148.2489408  86.7309408  72.6180000
 147.0989408  85.8779408  72.1250000 133.8599408  66.7389408  62.4700000
 133.0679408  67.2019408  62.1940000 133.5509408  66.0939408  63.1060000
 124.9999408  89.5199408  78.2440000 125.1339408  89.6689408  79.1800000
 124.6149408  90.3359408  77.9240000 130.5059408  79.8669408  66.1100000
 129.8559408  79.5139408  65.5030000 129.9949408  80.3779408  66.7380000
 133.0909408  65.1259408  64.6640000 133.6829408  65.1169408  65.4160000
 132.3979408  64.5079408  64.8970000 123.3269408  84.6049408  79.3680000
 124.2059408  84.2289408  79.3230000 123.4169408  85.4729408  78.9750000
 120.0379408  81.4779408  64.6990000 120.9309408  81.1549408  64.5830000
 119.4899408  80.8369408  64.2450000 135.7609408  85.8819408  64.7460000
 135.6409408  85.0999408  64.2060000 134.9199408  85.9989408  65.1890000
 134.2179408  80.3289408  73.1910000 134.4609408  81.2159408  72.9250000
 135.0449408  79.9189408  73.4450000 137.6079408  81.4719408  81.4500000
 137.1129408  82.1989408  81.8280000 137.2049408  80.6879408  81.8230000
 132.8429408  84.9729408  81.9030000 132.4879408  84.2539408  81.3800000
 133.3269408  85.5089408  81.2750000 124.6779408  82.4899408  76.5850000
 125.2769408  83.2359408  76.6160000 125.2109408  81.7439408  76.8610000
 125.7979408  81.3969408  66.7650000 126.4539408  81.7799408  67.3470000
 124.9819408  81.4349408  67.2640000 137.4849408  87.6719408  67.7400000
 136.6389408  87.2889408  67.9700000 137.8719408  87.0489408  67.1250000
 122.3099408  78.7869408  65.5240000 121.6629408  78.6259408  66.2120000
 123.1549408  78.6519408  65.9530000 134.3059408  88.7819408  67.3720000
 134.7559408  88.1469408  67.9280000 133.9669408  88.2639408  66.6420000
 144.3189408  84.7159408  74.1060000 144.8969408  83.9829408  73.8980000
 144.5489408  85.3919408  73.4680000 126.4959408  78.9039408  62.3800000
 125.9039408  79.5189408  61.9470000 125.9969408  78.0889408  62.4350000
 136.4369408  79.0669408  81.2430000 136.5039408  78.3559408  80.6060000
 135.6939408  79.5899408  80.9420000 130.3759408  83.4779408  77.1180000
 129.6279408  83.2069408  77.6500000 130.5139408  82.7509408  76.5100000
 135.4449408  85.1009408  74.0140000 136.2459408  85.2109408  73.5020000
 135.0809408  84.2679408  73.7140000 129.1669408  65.4379408  65.7480000
 128.8509408  65.6709408  64.8750000 129.4189408  64.5179408  65.6750000
 124.2729408  80.1469408  72.5690000 123.8439408  80.9559408  72.8460000
 125.0339408  80.0699408  73.1450000 123.2469408  75.4839408  63.2100000
 123.6359408  76.1419408  62.6340000 123.7999408  75.4919408  63.9910000
 124.1789408  77.7809408  68.9290000 124.2309408  78.1619408  68.0530000
 123.5919408  77.0319408  68.8310000 131.1639408  89.3629408  74.0990000
 131.9599408  89.0219408  74.5070000 130.8289408  90.0059408  74.7250000
 131.2709408  89.4239408  60.7540000 131.1439408  89.1009408  59.8620000
 130.7259408  90.2099408  60.8040000 130.1639408  74.3359408  77.9330000
 129.7059408  73.4989408  77.8530000 130.9369408  74.2409408  77.3770000
 126.7049408  84.8669408  67.0240000 127.3139408  84.3839408  66.4660000
 126.0519408  85.2189408  66.4190000 120.7809408  77.7779408  63.0700000
 121.3749408  77.8329408  63.8190000 121.3059408  78.0689408  62.3250000
 126.9129408  86.0559408  73.0170000 126.7609408  86.9919408  73.1450000
 127.8609408  85.9539408  73.1010000 129.9689408  85.5049408  71.5150000
 130.0609408  86.2039408  72.1630000 129.5309408  85.9229408  70.7730000
 132.8559408  62.0519408  69.6080000 133.6339408  61.5559408  69.8640000
 132.6389408  62.5739408  70.3800000 120.6149408  74.7429408  62.4330000
 119.9859408  75.4539408  62.5520000 121.4659408  75.1429408  62.6100000
 135.8529408  83.8829408  67.9390000 135.9139408  83.7729408  66.9900000
 136.7569408  84.0099408  68.2250000 127.6779408  75.6369408  78.2270000
 127.3809408  75.6059408  79.1360000 128.4549408  75.0779408  78.2080000
 124.3649408  82.5619408  70.9050000 123.8259408  83.0119408  71.5560000
 125.0559408  83.1889408  70.6910000 131.6299408  83.2589408  71.2250000
 131.9139408  83.2529408  70.3110000 130.9499408  83.9319408  71.2610000
 123.3079408  82.3489408  74.1740000 123.6449408  83.1049408  73.6930000
 123.8179408  82.3319408  74.9840000 140.0859408  63.0319408  61.4180000
 140.4329408  62.3479408  60.8450000 139.2249408  62.7079408  61.6830000
 148.1769408  62.4219408  80.1510000 147.3749408  62.2089408  80.6290000
 148.4289408  63.2859408  80.4760000 139.2209408  88.9019408  69.3070000
 138.6819408  89.2899408  69.9960000 138.5979408  88.6619408  68.6210000
 120.7819408  76.6869408  75.9170000 120.1779408  76.2529408  76.5200000
 120.3069408  77.4619408  75.6180000 126.7389408  84.1779408  69.9850000
 126.8389408  85.0859408  70.2700000 126.8689408  84.2079408  69.0370000
 130.4329408  61.4439408  75.7220000 130.5989408  61.4719408  76.6650000
 130.7079408  62.3039408  75.4050000 123.3309408  79.3729408  78.2010000
 122.4419408  79.5659408  78.5000000 123.8949408  79.6769408  78.9110000
 146.3379408  68.5209408  74.7070000 145.9319408  69.3879408  74.7270000
 145.5999408  67.9109408  74.7000000 123.1059408  81.9459408  68.1800000
 123.4189408  82.7029408  68.6760000 122.1519408  82.0229408  68.2010000
 135.4369408  83.2539408  80.0090000 136.0059408  83.1119408  79.2530000
 135.0009408  82.4129408  80.1430000 127.0619408  81.4499408  69.2770000
 127.2629408  82.2119408  69.8210000 126.5489408  80.8769408  69.8470000
 132.0659408  88.8869408  69.7040000 131.2279408  88.5389408  69.3980000
 132.5209408  89.1529408  68.9050000 131.2699408  86.0949408  76.5260000
 131.8939408  86.0249408  75.8040000 131.2699408  85.2259408  76.9290000
 130.8659408  78.4719408  62.7640000 130.6719408  79.4039408  62.8690000
 131.5619408  78.2989408  63.3990000 133.6439408  60.4429408  61.8470000
 132.8629408  60.2199408  61.3410000 133.6489408  61.3999408  61.8730000
 123.1739408  60.5829408  64.5740000 124.1289408  60.6499408  64.5680000
 122.8779408  61.4079408  64.9580000 129.4209408  81.4549408  67.9740000
 128.8169408  81.4819408  68.7160000 130.2109408  81.8929408  68.2920000
 148.8549408  83.9129408  70.4620000 148.1329408  83.2899408  70.3720000
 148.5459408  84.5469408  71.1090000 129.8059408  75.8759408  81.7940000
 128.8959408  76.1509408  81.9020000 129.7489408  74.9669408  81.5000000
 127.9939408  81.3219408  74.6600000 128.8919408  81.3319408  74.9910000
 127.9779408  82.0019408  73.9870000 145.4639408  85.1709408  68.5830000
 144.5769408  85.4189408  68.3240000 145.9009408  84.9499408  67.7600000
 144.4759408  80.8279408  79.0240000 145.3199408  81.0919408  78.6570000
 144.7019408  80.2359408  79.7420000 132.9509408  61.3049408  72.5350000
 133.5739408  60.6049408  72.7320000 132.1069408  60.9639408  72.8300000
 149.8429408  86.8959408  68.9490000 149.2369408  86.1979408  68.6960000
 150.4319408  86.4839408  69.5810000 133.2739408  86.0209408  65.5640000
 133.0779408  85.8549408  66.4860000 132.5129408  85.6839408  65.0920000
 133.9679408  83.1959408  72.7510000 133.0609408  83.1179408  72.4530000
 134.4749408  83.3119408  71.9480000 127.9659408  83.2009408  84.6000000
 128.6309408  82.7009408  84.1270000 127.9549408  84.0549408  84.1660000
 148.8189408  88.9629408  79.5480000 149.3499408  88.7979408  80.3270000
 147.9169408  88.8389408  79.8420000 127.1999408  62.1849408  79.7970000
 127.7519408  61.4189408  79.6400000 126.4489408  61.8439408  80.2840000
 136.6659408  72.2829408  61.1970000 136.1439408  73.0379408  60.9240000
 136.2319408  71.9649408  61.9890000 131.4439408  75.8639408  83.9440000
 132.0879408  76.3889408  83.4680000 130.7859408  75.6379408  83.2870000
 134.5009408  72.8519408  65.8720000 134.3729408  72.6739408  66.8040000
 133.6179408  72.8409408  65.5020000 130.8959408  79.7499408  69.9370000
 130.1039408  79.8069408  70.4710000 131.6099408  79.9329408  70.5480000
 139.0259408  74.6979408  65.6060000 139.1789408  75.5409408  66.0320000
 138.8219408  74.0999408  66.3250000 126.7689408  88.4729408  74.2330000
 127.3599408  89.2059408  74.4070000 125.9639408  88.6979408  74.6990000
 147.3529408  60.3099408  72.8330000 147.5099408  59.6729408  73.5300000
 147.9369408  61.0399408  73.0390000 132.1129408  78.3489408  67.7370000
 131.7449408  78.5769408  68.5910000 131.5649408  78.8179408  67.1070000
 144.6629408  79.5749408  72.4850000 144.9049408  78.8659408  73.0800000
 144.1909408  79.1409408  71.7740000 121.4539408  89.7109408  75.8930000
 121.4329408  90.6619408  76.0040000 122.2849408  89.5399408  75.4500000
 126.8329408  80.5419408  77.8900000 127.4509408  79.8449408  77.6710000
 126.2749408  80.1639408  78.5700000 145.2199408  74.8659408  61.3530000
 145.3179408  74.0859408  60.8060000 144.4369408  75.3009408  61.0120000
 138.8679408  87.6099408  63.3490000 139.7269408  87.3279408  63.6620000
 138.2529408  87.2769408  64.0020000 128.3579408  64.1779408  61.8600000
 128.4489408  64.8209408  62.5630000 127.5369408  63.7239408  62.0540000
 131.2019408  88.7629408  63.4690000 131.2119408  89.5939408  63.9450000
 131.6049408  88.9659408  62.6240000 126.1329408  83.5059408  80.1000000
 126.3269408  83.2889408  79.1880000 126.9599408  83.8419408  80.4480000
 130.2109408  88.4339408  71.9620000 131.0079408  88.2959408  71.4500000
 130.5229408  88.6039408  72.8510000 121.6809408  88.4499408  67.5820000
 122.3499408  87.9409408  67.1260000 120.8959408  87.9039408  67.5440000
 145.9239408  82.7609408  73.2040000 145.7279408  82.7439408  72.2670000
 146.0819408  81.8459408  73.4340000 139.3099408  86.6769408  74.0320000
 139.6109408  86.8749408  74.9190000 139.3619408  85.7229408  73.9680000
 123.3539408  84.7089408  69.0660000 123.7559408  85.5449408  69.3010000
 122.5179408  84.9489408  68.6650000 149.6089408  87.8679408  75.3230000
 150.1049408  87.1339408  74.9590000 150.2649408  88.5469408  75.4810000
 142.3659408  74.6299408  68.6880000 141.7399408  74.6659408  69.4110000
 143.1379408  75.0919408  69.0160000 121.5119408  79.0599408  73.6060000
 120.8219408  79.4449408  73.0660000 122.0049408  78.5029408  73.0030000
 123.9449408  86.8669408  78.1460000 123.7629408  86.8199408  77.2080000
 124.4529408  87.6719408  78.2510000 133.2799408  82.0519408  75.6120000
 132.3279408  81.9589408  75.6370000 133.5199408  81.8259408  74.7140000
 132.9559408  81.3659408  66.3640000 133.4859408  81.8059408  65.6990000
 132.4029408  80.7609408  65.8690000 123.4409408  66.1809408  61.9050000
 124.0029408  66.8479408  61.5100000 123.9759408  65.7989408  62.6010000
 137.0119408  83.5979408  60.0990000 137.4669408  84.3679408  60.4400000
 136.1409408  83.9179408  59.8630000 138.2589408  72.5979408  67.4360000
 137.7069408  71.9699408  66.9700000 137.6589408  73.0499408  68.0290000
 120.1369408  63.5589408  65.8370000 119.9919408  62.6449408  65.5950000
 120.0729408  63.5669408  66.7920000 146.3759408  83.1479408  82.1470000
 145.9069408  83.8409408  81.6830000 147.2419408  83.1299408  81.7400000
 132.6159408  82.0489408  84.5270000 132.7129408  81.7699408  85.4380000
 133.1399408  81.4229408  84.0270000 124.7479408  86.4299408  62.0810000
 124.8309408  85.7089408  62.7050000 123.9279408  86.8609408  62.3190000
 129.2759408  86.4629408  74.7030000 129.7309408  86.2569408  75.5190000
 129.1089408  87.4049408  74.7520000 143.3719408  89.3539408  76.9710000
 143.3079408  88.3989408  76.9860000 142.9949408  89.6059408  76.1290000
 136.2559408  83.4489408  82.4580000 135.9049408  83.5529408  81.5740000
 135.4959408  83.5559408  83.0320000 126.9949408  75.9949408  80.7340000
 126.4209408  75.7369408  81.4560000 126.9939408  76.9519408  80.7580000
 136.4109408  87.9309408  76.0400000 136.7929408  88.4529408  76.7440000
 136.9819408  88.0879408  75.2870000 134.1419408  84.1589408  84.0840000
 133.6309408  83.3779408  84.2940000 133.5819408  84.6599408  83.4910000
 133.5379408  76.9969408  82.3460000 134.1009408  76.3869408  82.8230000
 133.4289408  76.5979408  81.4830000 133.4829408  79.4799408  83.5240000
 133.6019408  78.6709408  83.0260000 134.1959408  79.4769408  84.1620000
 134.6979408  85.7839408  79.6430000 134.8279408  85.7939408  78.6940000
 134.6369408  84.8559408  79.8670000 125.6269408  85.5319408  82.0670000
 126.1349408  85.9269408  81.3580000 125.2669408  84.7309408  81.6870000
 144.5209408  77.0009408  82.3890000 145.1209408  76.3069408  82.6620000
 143.6929408  76.7869408  82.8180000 130.6369408  81.0749408  75.7480000
 131.0509408  80.3259408  76.1760000 130.8889408  80.9959408  74.8280000
 134.6019408  88.8039408  83.5100000 135.1489408  88.3629408  84.1610000
 134.6489408  89.7299408  83.7450000 137.2359408  85.8399408  84.2300000
 137.9919408  85.7569408  83.6490000 136.6439408  85.1399408  83.9550000
 136.3829408  85.0279408  76.5230000 135.9809408  84.9789408  75.6560000
 136.6939408  85.9299408  76.5930000 119.8979408  85.6919408  82.9550000
 119.7849408  84.8959408  83.4740000 120.8379408  85.7319408  82.7780000
 146.7709408  63.6649408  82.7270000 146.7729408  62.8369408  83.2070000
 147.3549408  64.2339408  83.2270000 129.9189408  63.5539408  81.8240000
 129.1149408  63.4609408  82.3350000 130.5089408  62.8899408  82.1800000
 128.4839408  72.6569408  72.7750000 128.7579408  73.2109408  72.0450000
 129.2489408  72.1129408  72.9640000 124.8689408  82.0059408  64.4930000
 125.4839408  82.3369408  63.8380000 125.3879408  81.9349408  65.2950000
 121.2759408  80.9209408  82.3260000 121.5259408  80.2529408  81.6880000
 121.9619408  81.5849408  82.2600000 127.4129408  86.2019408  80.0570000
 127.4249408  86.6489408  79.2110000 128.2419408  86.4469408  80.4690000
 141.6459408  85.8579408  79.2480000 141.8839408  85.4889408  78.3980000
 141.1379408  85.1669408  79.6750000 146.5009408  83.4099408  63.8900000
 147.2679408  83.2959408  63.3290000 146.1529408  84.2679408  63.6490000
 132.1069408  88.3369408  82.1520000 132.8629408  88.3479408  82.7390000
 131.9139408  89.2609408  81.9920000 126.9049408  89.6589408  84.4020000
 127.4049408  89.1249408  85.0190000 127.5369408  89.8999408  83.7250000
 135.8789408  62.1039408  81.6990000 135.5149408  61.9559408  82.5720000
 136.7829408  61.7959408  81.7610000 128.8949408  81.6709408  79.8570000
 128.2309408  81.5909408  79.1720000 128.9859408  80.7849408  80.2080000
 139.3409408  79.3989408  80.3370000 139.0289408  79.1119408  79.4790000
 138.5439408  79.5879408  80.8320000 133.0649408  61.5539408  80.0000000
 133.9649408  61.6039408  80.3230000 132.9399408  60.6309408  79.7800000
 130.1359408  82.0139408  83.1660000 130.2959408  82.4989408  82.3560000
 130.9959408  81.9489408  83.5810000 138.4869408  68.0279408  61.6070000
 139.1999408  68.3819408  62.1380000 138.0509408  68.7999408  61.2450000
 134.4529408  80.9099408  63.7780000 134.3679408  80.7669408  62.8350000
 135.0229408  80.2019408  64.0770000 127.1399408  87.5469408  77.6840000
 126.8289408  87.2759408  76.8200000 126.5409408  88.2459408  77.9460000
 135.7979408  88.7229408  63.2530000 135.6619408  87.7969408  63.0530000
 135.1299408  89.1799408  62.7420000 129.0859408  61.1759408  61.1750000
 128.4019408  60.5059408  61.1510000 128.6729408  61.9539408  60.8020000
 128.0329408  89.1679408  70.5370000 128.6119408  88.8459408  71.2270000
 127.5109408  89.8489408  70.9610000 132.8329408  76.8609408  73.8650000
 132.4649408  75.9809408  73.9370000 132.1939408  77.3459408  73.3420000
 125.5019408  60.1759408  80.8970000 125.1519408  60.8029408  81.5300000
 125.3639408  59.3209408  81.3060000 134.6709408  67.7959408  65.3550000
 135.3629408  67.6749408  64.7050000 134.3999408  66.9069408  65.5840000
 132.2429408  66.3459408  67.8770000 133.0639408  65.9189408  67.6340000
 131.5769408  65.9019408  67.3520000 144.9609408  75.1169408  66.4150000
 144.0719408  75.3439408  66.1410000 145.4919408  75.8699408  66.1570000
 139.3769408  67.5459408  72.7920000 139.5639408  67.9789408  71.9590000
 138.9799408  68.2279408  73.3340000 149.9389408  72.9329408  80.1570000
 149.2409408  73.5489408  79.9330000 149.5489408  72.0699408  80.0180000
 143.4369408  68.0999408  74.6000000 143.0629408  68.4679408  73.7990000
 143.0709408  67.2169408  74.6520000 147.4789408  63.9939408  70.6530000
 147.3369408  64.2939408  69.7560000 147.7139408  63.0699408  70.5640000
 143.8419408  67.9109408  71.1330000 143.2649408  68.4849408  70.6300000
 144.5029408  67.6239408  70.5030000 144.1399408  61.3499408  70.9420000
 143.2239408  61.4689408  71.1920000 144.1099408  60.7419408  70.2040000
 120.0609408  66.7279408  77.5830000 120.7789408  67.3319408  77.7720000
 119.7179408  67.0209408  76.7390000 139.3879408  72.0239408  61.7080000
 138.4449408  72.1189408  61.5730000 139.5609408  71.0969408  61.5410000
 138.6229408  64.8899408  72.5080000 139.1929408  64.4829408  71.8550000
 138.9969408  65.7609408  72.6440000 148.2209408  83.3229408  74.8680000
 147.5639408  83.4529408  74.1850000 149.0359408  83.1649408  74.3900000
 147.7609408  62.7849408  63.9490000 148.2159408  62.0179408  63.6010000
 147.0409408  62.9349408  63.3370000 135.8699408  67.0169408  60.6600000
 135.2029408  66.8519408  61.3270000 136.4569408  67.6569408  61.0610000
 145.9399408  65.4359408  74.7680000 146.1589408  65.8389408  73.9280000
 145.7629408  64.5199408  74.5560000 145.4509408  66.9699408  65.4990000
 144.8859408  66.2069408  65.3780000 145.7639408  67.1789408  64.6180000
 120.4629408  82.8909408  73.2580000 120.2129408  81.9829408  73.0880000
 121.3599408  82.8359408  73.5870000 134.7979408  71.2589408  80.4950000
 134.1209408  71.7319408  80.0110000 135.3779408  71.9449408  80.8280000
 138.4659408  83.8039408  69.1880000 138.8379408  84.6159408  68.8460000
 138.9149408  83.1109408  68.7040000 136.7079408  67.0059408  63.8860000
 137.1969408  67.5149408  63.2390000 136.7849408  66.0999408  63.5860000
 125.6159408  63.9159408  77.9620000 126.1299408  63.4149408  78.5940000
 125.1099408  63.2559408  77.4870000 145.2969408  65.6169408  79.7390000
 146.1719408  65.2819408  79.5430000 144.9219408  65.8239408  78.8830000
 130.5079408  67.1349408  80.9140000 131.3479408  66.7929408  80.6060000
 130.6289408  67.2549408  81.8560000 125.4309408  68.9249408  73.3460000
 124.5449408  68.8439408  73.6980000 125.4069408  69.7229408  72.8170000
 149.5329408  60.6999408  63.3760000 150.1959408  60.7629408  62.6890000
 149.1429408  59.8339408  63.2540000 139.1209408  71.3209408  73.8360000
 138.7309408  71.3989408  72.9650000 138.7629408  72.0599408  74.3270000
 143.4509408  76.6139408  77.9200000 143.0099408  77.2459408  77.3520000
 142.8429408  76.4799408  78.6470000 121.2429408  85.3819408  71.0890000
 121.8839408  84.7989408  70.6820000 120.4409408  84.8619408  71.1370000
 120.5589408  63.4369408  62.1060000 120.9039408  63.9419408  61.3700000
 119.6199408  63.3699408  61.9320000 145.4529408  83.0009408  66.3470000
 146.1639408  82.5919408  66.8410000 145.8259408  83.1649408  65.4810000
 139.8289408  72.1619408  64.8400000 140.2879408  72.3219408  65.6640000
 139.5549408  73.0299408  64.5450000 145.5609408  71.1319408  75.4750000
 145.1189408  70.5969408  76.1340000 144.8589408  71.6419408  75.0700000
 121.6959408  74.5629408  65.6540000 121.0739408  74.5129408  64.9270000
 121.7619408  73.6639408  65.9750000 146.7429408  63.6139408  77.8620000
 146.4659408  64.0829408  77.0750000 146.0469408  62.9769408  78.0200000
 141.6259408  79.4869408  61.2030000 142.4039408  79.0829408  61.5860000
 141.3859408  80.1789408  61.8190000 149.2179408  83.7659408  65.8380000
 149.3659408  84.3189408  65.0710000 149.4309408  82.8809408  65.5410000
 141.2669408  60.7559408  68.5830000 141.3999408  61.0999408  69.4660000
 140.5919408  60.0849408  68.6870000 147.0209408  60.6149408  83.3560000
 146.1119408  60.3729408  83.1770000 147.4589408  59.7839408  83.5400000
 147.0549408  80.3509408  73.5330000 146.2059408  80.0659408  73.1960000
 147.4329408  79.5649408  73.9270000 143.3629408  65.0449408  71.8150000
 143.7649408  65.8809408  71.5770000 144.1039408  64.4649408  71.9930000
 144.9759408  61.0289408  80.1130000 144.6729408  61.3969408  79.2830000
 144.4759408  61.4979408  80.7810000 142.5319408  83.9129408  76.2690000
 143.3199408  83.8259408  76.8050000 142.8589408  84.0669408  75.3830000
 146.3219408  67.4929408  83.9420000 146.3019408  66.7529408  84.5480000
 147.1049408  67.9849408  84.1900000 120.1739408  71.8329408  71.6060000
 120.4409408  71.6049408  72.4960000 120.8999408  72.3529408  71.2630000
 145.7369408  79.1459408  68.1800000 144.8499408  79.1279408  68.5390000
 146.1869408  78.4239408  68.6170000 136.6539408  69.5689408  67.1000000
 136.2859408  69.1019408  66.3490000 137.5579408  69.2609408  67.1550000
 138.3429408  85.7469408  66.0430000 138.8659408  84.9999408  65.7510000
 137.5969408  85.7659408  65.4440000 124.7929408  85.8129408  65.2480000
 124.3529408  86.6369408  65.4600000 124.0799408  85.1949408  65.0880000
 143.2419408  83.1659408  70.4920000 142.9709408  83.7249408  69.7630000
 142.5509408  82.5069408  70.5570000 145.7379408  86.5139408  76.0000000
 145.5399408  85.6189408  75.7260000 144.8859408  86.8929408  76.2160000
 120.0309408  66.3349408  67.2890000 119.4529408  65.8939408  66.6650000
 120.7089408  66.7369408  66.7450000 125.4109408  61.6389408  74.1010000
 126.3529408  61.5459408  73.9540000 125.1199408  62.2449408  73.4200000
 132.0409408  63.7889408  60.3090000 131.4489408  64.5119408  60.1020000
 132.7159408  63.8299408  59.6310000 144.4599408  62.0869408  77.5660000
 144.6979408  62.1839408  76.6440000 143.9199408  61.2969408  77.5930000
 128.5499408  64.3989408  79.4280000 129.1569408  64.0959408  80.1040000
 127.8149408  63.7869408  79.4750000 141.2339408  61.7299408  71.0500000
 141.0569408  61.7479408  71.9900000 141.0979408  62.6329408  70.7630000
 142.1169408  66.2239408  76.4610000 141.5759408  66.8179408  76.9810000
 141.6809408  66.1839408  75.6100000 147.9949408  61.5439408  69.2960000
 147.6689408  60.7739408  69.7610000 147.5859408  61.4939408  68.4320000
 124.1849408  79.2609408  75.5620000 123.2749408  79.4589408  75.3410000
 124.2369408  79.3929408  76.5080000 141.5719408  76.0879408  79.4610000
 141.2589408  76.5549408  80.2350000 142.0279408  75.3219408  79.8100000
 144.5889408  72.8039408  78.0590000 145.3309408  72.2919408  77.7360000
 144.9889408  73.5189408  78.5550000 122.6959408  64.0899408  81.8710000
 122.3059408  63.5869408  81.1560000 122.9999408  64.8979408  81.4560000
 149.8669408  82.4849408  83.7190000 150.5199408  82.0109408  83.2050000
 149.1229408  82.5889408  83.1250000 142.9719408  89.7709408  66.6800000
 142.3179408  90.1079408  67.2920000 143.6439408  89.3789408  67.2390000
 132.1399408  67.4559408  72.2220000 133.0799408  67.4309408  72.0430000
 131.9669408  66.6499408  72.7080000 142.2569408  72.3619408  71.4830000
 141.7519408  73.1539408  71.2990000 142.2079408  71.8529408  70.6740000
 147.9939408  68.9349408  78.7130000 148.8849408  68.7869408  79.0320000
 147.4419408  68.4079408  79.2910000 122.6369408  68.9269408  68.6340000
 123.0599408  69.1289408  69.4690000 121.7709408  69.3279408  68.7010000
 121.9669408  68.2519408  78.4270000 122.8179408  68.6559408  78.5950000
 121.4089408  68.5619408  79.1400000 147.5039408  65.9579408  72.6760000
 147.6349408  65.1329408  72.2080000 147.4329408  66.6169408  71.9850000
 126.0659408  63.5049408  63.3350000 125.7129408  64.3689408  63.5490000
 125.3759408  63.0859408  62.8200000 140.1629408  63.2489408  67.1740000
 140.7889408  62.6829408  67.6270000 139.4289408  63.3299408  67.7820000
 136.8479408  89.6619408  70.6200000 136.3209408  89.0759408  71.1630000
 136.2789408  89.8849408  69.8840000 125.8869408  70.2809408  65.3640000
 125.6359408  70.8369408  66.1020000 125.8729408  70.8659408  64.6070000
 142.0509408  87.8479408  81.3780000 142.2919408  87.3129408  80.6220000
 142.4079408  88.7149408  81.1820000 146.0049408  88.4509408  80.5770000
 145.3879408  87.8689408  80.1320000 145.6789408  89.3319408  80.3920000
 135.9519408  75.9449408  60.6750000 135.0699408  75.6069408  60.8280000
 136.3909408  75.2529408  60.1800000 142.1649408  67.7679408  68.6350000
 143.0789408  67.4839408  68.6030000 142.1279408  68.5239408  68.0490000
 144.3869408  70.8979408  67.2380000 144.6949408  71.3449408  68.0260000
 145.0989408  71.0059408  66.6070000 140.4669408  87.5979408  76.5020000
 140.0149408  88.4079408  76.7400000 139.9129408  86.9009408  76.8520000
 137.1799408  84.4859408  71.5940000 137.1339408  84.0919408  70.7230000
 137.8769408  85.1389408  71.5260000 147.1109408  67.9229408  70.7590000
 146.6699408  68.6599408  71.1820000 147.2859408  68.2279408  69.8680000
 144.4309408  68.2329408  60.1660000 144.9999408  68.8329408  59.6840000
 144.9499408  67.9689408  60.9260000 147.6649408  77.8339408  80.4340000
 147.0099408  77.9209408  81.1270000 147.7929408  78.7259408  80.1110000
 140.4459408  65.7249408  65.9510000 140.6899408  64.9389408  66.4390000
 141.2809408  66.0999408  65.6680000 124.0989408  77.2339408  80.9040000
 123.5579408  77.6299408  80.2210000 124.7849408  77.8809408  81.0720000
 143.0409408  85.6989408  67.7480000 142.2169408  86.1149408  67.4950000
 143.0589408  84.8799408  67.2530000 135.0709408  63.1099408  71.9730000
 135.9309408  62.7019408  71.8700000 134.5769408  62.4959408  72.5170000
 121.2549408  66.8109408  74.1630000 120.3669408  66.7379408  74.5100000
 121.5479408  67.6809408  74.4330000 121.2039408  78.3319408  68.1590000
 121.7869408  78.4599408  68.9080000 120.4139408  77.9419408  68.5330000
 130.8509408  78.0429408  80.5640000 131.5169408  77.8769408  79.8970000
 130.6929408  77.1879408  80.9640000 145.3289408  73.5029408  71.5810000
 145.0329408  74.2309408  72.1270000 146.1189408  73.1829408  72.0170000
 147.1119408  87.8559408  74.3000000 146.6299408  87.3489408  74.9530000
 148.0099408  87.8809408  74.6300000 144.7879408  62.1149408  65.8990000
 144.1839408  61.3719408  65.9120000 145.6579408  61.7159408  65.9040000
 139.4179408  75.1679408  76.0930000 140.2329408  74.6729408  76.0060000
 139.6999408  76.0539408  76.3210000 147.7659408  73.5989408  63.8470000
 147.7389408  73.8419408  64.7720000 147.9009408  74.4269408  63.3850000
 125.1689408  74.5189408  76.3780000 125.8409408  74.4369408  77.0540000
 124.4199408  74.9079408  76.8290000 144.5049408  63.7859408  68.3370000
 144.6659408  63.1259408  67.6630000 145.3689408  63.9629408  68.7110000
 147.8919408  75.9599408  61.8140000 147.0629408  75.4949408  61.6950000
 148.2699408  76.0039408  60.9360000 141.4209408  65.9589408  73.7260000
 140.7449408  66.4539408  73.2630000 142.0389408  65.6999408  73.0420000
 124.4059408  70.8699408  61.0480000 123.6999408  71.4429408  61.3470000
 125.1239408  71.0339408  61.6600000 137.9489408  77.1749408  71.2960000
 137.9059408  76.2389408  71.0990000 138.8179408  77.2979408  71.6800000
 145.4809408  71.9639408  69.4060000 145.1199408  72.5119408  70.1030000
 146.2799408  71.5939408  69.7810000 136.7859408  78.4209408  61.6810000
 136.7219408  77.5299408  61.3370000 137.4129408  78.8559408  61.1040000
 142.8489408  73.5719408  79.9600000 143.5609408  73.2709408  79.3950000
 142.1069408  73.0129408  79.7290000 143.2589408  60.4689408  74.2250000
 143.7039408  59.7619408  73.7580000 143.9489408  61.1049408  74.4120000
 128.5139408  78.9249408  64.6940000 128.4449408  77.9949408  64.9100000
 127.8739408  79.0569408  63.9950000 120.9149408  72.1979408  63.5130000
 120.7669408  72.8599408  62.8380000 120.2449408  71.5339408  63.3490000
 136.2619408  65.6629408  71.8050000 137.1559408  65.3529408  71.9450000
 135.7269408  64.8699408  71.8260000 145.2609408  62.5219408  75.1500000
 146.1599408  62.1979408  75.2140000 145.1129408  62.6349408  74.2110000
 146.0369408  69.7699408  72.4210000 146.3529408  69.1019408  73.0300000
 145.0999408  69.8379408  72.6050000 143.0209408  68.4339408  63.5050000
 143.2149408  69.3699408  63.4500000 143.4379408  68.1499408  64.3190000
 138.3969408  61.7669408  64.5070000 138.1719408  61.0319408  65.0770000
 139.3529408  61.8069408  64.5340000 149.4079408  80.4649408  72.4830000
 148.5159408  80.4729408  72.8300000 149.2959408  80.4509408  71.5330000
 139.9099408  68.3669408  70.0660000 139.9099408  69.2509408  69.6990000
 140.6139408  67.9149408  69.6030000 142.3429408  77.8229408  73.7280000
 142.4789408  78.5569408  74.3260000 141.4959408  77.9999408  73.3180000
 138.5539408  78.9259408  84.6820000 138.7939408  78.2999408  85.3660000
 139.3529408  79.4279408  84.5250000 120.9789408  71.7839408  66.4660000
 120.8059408  71.5689408  65.5490000 120.8379408  70.9619408  66.9360000
 138.5449408  66.2349408  68.9460000 138.6869408  66.3049408  68.0020000
 138.8589408  67.0669408  69.2990000 137.5829408  62.1169408  71.6990000
 137.5359408  61.9249408  72.6360000 137.4419408  61.2719408  71.2740000
 143.0879408  66.0449408  62.2860000 143.1179408  66.9629408  62.5550000
 142.5769408  66.0479408  61.4770000 139.4299408  89.0179408  60.8690000
 140.3869408  89.0099408  60.8630000 139.1899408  88.4979408  61.6360000
 149.4029408  81.3029408  76.8030000 149.1189408  82.1149408  76.3830000
 150.2919408  81.4879408  77.1050000 127.9229408  60.9289408  67.0610000
 128.3859408  61.4039408  67.7510000 127.6119408  61.6119408  66.4670000
 146.0629408  66.2019408  62.8730000 146.7759408  66.4759408  62.2960000
 145.4759408  65.7009408  62.3070000 145.4119408  80.8149408  61.5320000
 145.4999408  80.9999408  60.5970000 146.2239408  80.3649408  61.7650000
 148.3659408  65.4669408  79.3010000 148.8039408  65.9929408  78.6320000
 148.0599408  64.6899408  78.8330000 140.9419408  64.3839408  77.7550000
 140.5819408  63.9059408  77.0080000 141.5239408  65.0359408  77.3640000
 149.4049408  69.7769408  61.2160000 149.7829408  69.6169408  60.3520000
 148.8879408  68.9919408  61.4010000 141.4199408  73.2069408  84.2540000
 141.6209408  72.3409408  84.6100000 141.2789408  73.0559408  83.3200000
 149.1759408  70.3779408  82.4850000 148.2839408  70.5879408  82.2080000
 149.0939408  70.1619408  83.4140000 147.5159408  71.6489408  78.8270000
 147.5849408  70.6959408  78.7670000 147.6049408  71.8379408  79.7610000
 148.1189408  73.0759408  83.9840000 148.7619408  72.6759408  84.5710000
 147.4529408  73.4369408  84.5690000 141.7639408  73.3609408  62.3840000
 141.7739408  73.7069408  61.4920000 140.9559408  72.8499408  62.4340000
 148.0309408  85.7699408  60.2010000 147.6519408  86.3839408  59.5710000
 148.7909408  86.2309408  60.5560000 122.9169408  70.2559408  82.9200000
 122.3259408  70.8239408  82.4250000 123.4999408  70.8599408  83.3800000
 141.1939408  64.9999408  84.4080000 140.3499408  65.2639408  84.7730000
 141.2559408  64.0639408  84.5980000 148.7599408  88.1839408  63.0480000
 148.8759408  87.2849408  63.3560000 149.4779408  88.3219408  62.4310000
 122.6489408  67.0719408  83.3300000 122.9159408  67.8839408  82.8980000
 122.1039408  66.6239408  82.6820000 142.4329408  84.4709408  60.8190000
 141.6569408  84.3989408  61.3750000 142.5059408  83.6149408  60.3970000
 147.0089408  67.7539408  80.9100000 147.1639408  67.5669408  81.8360000
 146.1749408  67.3249408  80.7160000 139.5569408  79.2589408  64.7920000
 139.8279408  78.5009408  64.2750000 139.5719408  79.9889408  64.1730000
 146.9399408  70.5709408  65.5480000 147.2969408  71.4359408  65.7460000
 147.5429408  70.2049408  64.9000000 142.1869408  67.3489408  83.2340000
 142.6329408  67.2299408  82.3960000 141.9849408  66.4599408  83.5270000
 143.0549408  86.8219408  75.9560000 142.1179408  86.8199408  76.1500000
 143.1779408  86.0819408  75.3610000 146.0829408  74.9759408  82.9120000
 146.8299408  74.5689408  82.4730000 146.1679408  74.7089408  83.8270000
 121.7139408  64.7479408  64.2270000 121.3929408  64.3309408  63.4270000
 121.0859408  64.4889408  64.9010000 146.7119408  88.8939408  61.2240000
 147.5319408  88.5429408  61.5710000 146.3319408  89.3829408  61.9540000
 144.2559408  83.5429408  78.3680000 144.2759408  82.7569408  78.9150000
 145.1489408  83.6239408  78.0320000 144.1759408  78.5089408  61.7660000
 144.5339408  79.3739408  61.5650000 144.8279408  78.1069408  62.3410000
 145.2449408  75.1359408  79.2390000 144.6809408  75.3399408  79.9860000
 145.0279408  75.8009408  78.5860000 147.8889408  62.9389408  60.7890000
 147.1389408  62.3659408  60.9500000 147.5709408  63.8159408  61.0000000
 137.5889408  65.9449408  81.8650000 137.9269408  65.0509408  81.9150000
 138.2399408  66.4199408  81.3480000 140.0679408  66.6019408  80.6770000
 140.4109408  65.7399408  80.4420000 140.8469408  67.1369408  80.8290000
 149.4139408  63.1659408  76.0720000 149.2369408  62.3849408  76.5970000
 148.9069408  63.8589408  76.4960000 137.8799408  67.6249408  84.1220000
 137.7579408  66.6759408  84.0920000 137.0159408  67.9709408  84.3480000
 144.0009408  64.7069408  65.0710000 143.8849408  64.5229408  64.1390000
 144.2479408  63.8649408  65.4530000 148.6979408  64.9809408  83.9730000
 149.2289408  65.6649408  84.3820000 149.2709408  64.2149408  83.9480000
 129.8899408  71.8059408  77.1790000 130.2009408  71.2239408  77.8720000
 130.1229408  71.3559408  76.3660000 122.2539408  75.9619408  84.7120000
 121.4929408  75.4689408  84.4070000 123.0069408  75.4519408  84.4130000
 140.0029408  69.2039408  83.4090000 140.8009408  68.6759408  83.4560000
 139.3039408  68.6049408  83.6730000 143.6059408  72.7209408  74.1930000
 143.3069408  72.6279408  73.2890000 143.8659408  73.6389408  74.2670000
 143.0969408  67.0939408  80.7320000 143.5719408  67.7899408  80.2780000
 143.5829408  66.2959408  80.5220000 141.2829408  64.2129408  70.2370000
 142.1709408  64.4309408  70.5200000 140.9569408  65.0169408  69.8310000
 125.2779408  71.5559408  67.5480000 124.8449408  70.9229408  68.1220000
 125.5749408  72.2489408  68.1370000 126.0519408  66.0389408  72.9900000
 126.7619408  65.9259408  72.3580000 125.9799408  66.9859408  73.1040000
 146.9689408  86.1229408  82.1750000 147.8909408  86.2139408  82.4190000
 146.8059408  86.8519408  81.5770000 120.5089408  69.7659408  73.8980000
 119.8269408  69.7809408  74.5700000 120.2249408  69.0889408  73.2830000
 142.0069408  73.9469408  76.1180000 142.6479408  73.3789408  75.6900000
 142.4899408  74.3509408  76.8390000 123.1369408  75.9089408  77.4420000
 123.2879408  76.7359408  77.8990000 122.3239408  76.0479408  76.9560000
 144.1139408  63.7159408  81.1230000 144.5879408  64.4759408  80.7840000
 144.5419408  63.5189408  81.9560000 133.7419408  66.4529408  75.6390000
 134.2449408  66.8479408  74.9270000 133.4279408  67.1979408  76.1520000
 123.9139408  74.3159408  80.0960000 123.3239408  75.0459408  80.2810000
 123.8699408  74.2069408  79.1460000 139.3529408  69.0949408  79.9650000
 138.9699408  69.8979408  80.3180000 139.1119408  68.4159408  80.5960000
 137.2159408  62.2419408  74.2630000 137.4569408  61.6839408  75.0030000
 136.9959408  63.0849408  74.6600000 126.1759408  63.6459408  83.8610000
 127.0319408  63.4339408  84.2340000 125.6269408  63.8449408  84.6190000
 120.6509408  74.1239408  83.5250000 119.7119408  73.9479408  83.5810000
 120.9809408  73.4709408  82.9080000 122.0539408  72.5049408  81.6720000
 122.7779408  73.0489408  81.3630000 121.3189408  72.7389408  81.1060000
 147.4739408  68.2959408  67.3770000 147.0789408  69.0559408  66.9490000
 147.4529408  67.6089408  66.7110000 124.6389408  68.2059408  60.3610000
 124.5499408  69.1419408  60.5400000 125.5799408  68.0399408  60.4160000
 123.5789408  65.2939408  74.7230000 124.2869408  65.7469408  74.2640000
 122.8469408  65.9109408  74.7040000 134.3679408  68.5949408  80.4910000
 134.4269408  69.5469408  80.5680000 134.3979408  68.4279408  79.5490000
 122.4339408  89.4479408  81.3220000 121.7669408  88.7629408  81.3040000
 122.1439408  90.0829408  80.6670000 139.6399408  77.0629408  81.6660000
 140.2749408  77.2579408  82.3550000 139.4069408  77.9179408  81.3040000
 147.1349408  72.3819408  81.4320000 146.3539408  71.8949408  81.6950000
 147.7049408  72.3559408  82.2000000 121.7099408  64.5589408  77.3620000
 121.2679408  64.1129408  76.6390000 121.0809408  65.2169408  77.6580000
 123.7859408  63.1389408  65.5410000 124.7399408  63.2159408  65.5740000
 123.5029408  63.8839408  65.0110000 142.3099408  70.3559408  81.7640000
 141.7209408  71.1059408  81.6740000 141.7629408  69.6659408  82.1410000
 148.6129408  80.5529408  80.3810000 149.2029408  80.8629408  81.0670000
 148.5069408  81.3039408  79.7970000 138.5159408  85.7009408  60.7170000
 138.6129408  86.6029408  61.0230000 139.1969408  85.5999408  60.0510000
 144.3199408  75.3179408  73.4330000 143.7379408  76.0469408  73.2200000
 144.8819408  75.6559408  74.1310000 142.5469408  75.5769408  64.2880000
 141.8889408  76.0879408  63.8160000 142.4899408  74.7009408  63.9070000
 139.5539408  60.0589408  77.2370000 139.8519408  60.3489408  76.3750000
 138.6799408  60.4369408  77.3290000 144.5779408  86.1839408  79.7680000
 145.3119408  85.7339408  79.3490000 143.8019408  85.8429408  79.3220000
 141.9709408  89.7309408  64.2900000 141.4919408  90.5529408  64.3860000
 142.2929408  89.5359408  65.1700000 139.7779408  83.9979408  73.5600000
 140.2779408  84.1409408  72.7560000 140.3799408  83.5269408  74.1360000
 136.2369408  62.5929408  67.0360000 136.4979408  61.7169408  66.7530000
 137.0569408  63.0199408  67.2820000 137.8549408  63.6489408  68.8230000
 138.0219408  64.5789408  68.9790000 137.6949408  63.2839408  69.6930000
 140.3289408  84.1079408  62.8240000 139.6049408  84.5969408  62.4350000
 140.2499408  84.2699408  63.7640000 141.6989408  60.0119408  79.4060000
 142.3109408  59.7979408  78.7010000 140.9559408  60.4209408  78.9620000
 147.1489408  81.4149408  68.1260000 147.0169408  81.9989408  68.8730000
 146.3659408  80.8649408  68.1090000 141.1139408  62.1109408  64.7390000
 141.1109408  62.6599408  65.5240000 141.5609408  62.6399408  64.0780000
 142.0079408  70.1399408  76.2200000 141.9829408  70.3189408  75.2790000
 142.8879408  69.7949408  76.3750000 136.6089408  78.0909408  73.3550000
 136.7289408  77.5009408  72.6110000 137.4469408  78.5439408  73.4390000
 147.8639408  77.4319408  69.3610000 147.7469408  77.2979408  70.3010000
 148.3079408  78.2779408  69.2930000 121.0329408  85.6039408  73.9710000
 120.2089408  85.2399408  74.2930000 121.2309408  85.0919408  73.1870000
 121.9339408  89.6879408  78.6420000 122.2469408  88.7839408  78.6550000
 121.5109408  89.7829408  77.7880000 121.1559408  78.4609408  80.0400000
 120.2709408  78.7809408  79.8660000 121.0349408  77.5459408  80.2950000
 122.0799408  88.3339408  63.5080000 121.6479408  88.7749408  62.7770000
 122.4669408  89.0439408  64.0210000 137.4589408  79.6149408  66.9330000
 136.5709408  79.2699408  67.0270000 137.7209408  79.3639408  66.0470000
 146.6749408  77.5639408  73.5590000 146.2789408  77.7839408  74.4030000
 146.8119408  76.6169408  73.5990000 139.9319408  83.5469408  65.4520000
 139.4589408  82.7149408  65.4690000 140.8459408  83.3059408  65.6030000
 143.0439408  81.6259408  73.4910000 142.5689408  81.6099408  72.6600000
 143.9519408  81.4399408  73.2520000 141.5259408  87.0239408  63.9340000
 141.8329408  86.7029408  63.0860000 141.8009408  87.9409408  63.9570000
 142.5659408  83.1829408  66.2490000 142.5139408  82.3989408  66.7960000
 143.4839408  83.2299408  65.9820000 122.7359408  83.2419408  81.7040000
 122.8889408  83.6109408  80.8350000 122.5469408  83.9999408  82.2570000
 145.2289408  63.2469408  72.4100000 144.8559408  62.6399408  71.7710000
 146.0849408  63.4789408  72.0500000 123.0529408  86.7679408  75.5720000
 122.4119408  86.2939408  75.0430000 123.1159408  87.6289408  75.1590000
 144.1119408  81.8259408  63.7350000 144.7569408  82.4489408  64.0690000
 144.4369408  81.5849408  62.8680000 145.3229408  76.5199408  63.7300000
 145.4299408  75.8639408  63.0410000 144.4889408  76.2979408  64.1450000
 145.6729408  80.8899408  83.2500000 145.9379408  81.6929408  82.8020000
 145.0279408  80.4909408  82.6670000 148.0719408  75.0429408  74.1250000
 148.3279408  74.1539408  73.8810000 148.7059408  75.6059408  73.6790000
 141.4969408  77.6769408  68.9910000 140.6869408  77.9649408  69.4120000
 141.2069408  77.1699408  68.2330000 141.3089408  81.2979408  70.9070000
 140.3719408  81.3809408  71.0840000 141.3559408  80.9219408  70.0280000
 142.7679408  79.3119408  77.3790000 142.3009408  80.0629408  77.0110000
 143.4259408  79.6989408  77.9570000 139.7129408  81.5399408  67.5910000
 139.1179408  80.8719408  67.2500000 140.5109408  81.0599408  67.8100000
 143.7039408  77.7479408  70.5130000 144.1529408  76.9339408  70.2860000
 142.9529408  77.7799408  69.9200000 147.4709408  85.8359408  66.5070000
 147.7579408  84.9329408  66.6370000 147.3959408  85.9299408  65.5570000
 147.1539408  85.2229408  78.8610000 147.2309408  84.5909408  78.1470000
 147.9429408  85.7599408  78.7930000 148.9979408  75.2499408  77.3840000
 148.6679408  75.0439408  78.2580000 148.5579408  74.6249408  76.8080000
 137.0249408  82.7099408  77.6690000 136.8809408  82.0149408  77.0260000
 136.7759408  83.5139408  77.2140000 145.5159408  62.1409408  62.2740000
 144.6969408  62.6339408  62.2290000 145.2789408  61.3189408  62.7030000
 147.8379408  76.4779408  64.9610000 147.1649408  76.4449408  64.2810000
 148.2269408  77.3489408  64.8720000 138.1619408  71.4479408  78.1310000
 138.1129408  71.6889408  79.0560000 139.0279408  71.7449408  77.8520000
 131.7949408  64.1809408  75.4660000 131.0579408  64.3869408  76.0420000
 132.4969408  64.7619408  75.7580000 144.6279408  89.7129408  63.2650000
 143.6809408  89.5999408  63.3410000 144.9819408  89.3039408  64.0550000
 144.1549408  88.4689408  68.6710000 144.9869408  87.9959408  68.6860000
 143.5239408  87.8559408  69.0480000 147.6299408  88.3429408  67.5860000
 147.5669408  87.3909408  67.5050000 147.5549408  88.5079408  68.5260000
 146.7179408  83.2369408  77.1170000 147.0469408  83.5299408  76.2670000
 146.4409408  82.3329408  76.9690000 148.6429408  83.4169408  62.1320000
 149.5469408  83.7219408  62.2000000 148.2299408  84.0239408  61.5180000
 138.1019408  89.3339408  73.8490000 138.8249408  89.9569408  73.9170000
 138.5209408  88.5029408  73.6270000 120.8829408  75.8929408  80.9960000
 121.0199408  75.6469408  81.9110000 120.0429408  75.4959408  80.7640000
 149.7119408  87.0349408  78.1520000 149.5509408  87.4989408  77.3300000
 149.2639408  87.5589408  78.8150000 127.1339408  83.6299408  77.5170000
 126.9599408  84.4419408  77.0430000 127.4829408  83.0339408  76.8540000
 124.8129408  80.6049408  80.3340000 124.8989408  81.5329408  80.5520000
 124.8869408  80.1529408  81.1740000 145.3029408  86.0099408  71.7730000
 145.0519408  85.5969408  70.9470000 144.6769408  86.7259408  71.8830000
 135.4609408  83.4619408  63.0360000 135.9439408  83.2799408  62.2300000
 135.3659408  82.6069408  63.4560000 133.5109408  87.9189408  75.3630000
 134.4469408  87.8499408  75.5500000 133.2639408  87.0499408  75.0470000
 145.1669408  85.1589408  61.8110000 144.2559408  84.8679408  61.8270000
 145.3879408  85.2049408  60.8810000 141.1539408  87.1659408  66.5480000
 141.4189408  86.9389408  65.6570000 141.5359408  88.0299408  66.7000000
 136.0469408  64.5639408  75.7710000 136.0809408  64.5099408  76.7260000
 135.4529408  65.2939408  75.5940000 122.8799408  87.4629408  72.2670000
 122.0239408  87.0379408  72.2150000 123.2679408  87.3299408  71.4030000
 148.6919408  79.2009408  63.8620000 149.5599408  78.8229408  63.7170000
 148.1619408  78.8679408  63.1380000 147.3199408  78.8899408  61.5420000
 147.8129408  79.1749408  60.7720000 147.3469408  77.9339408  61.5040000
 120.1709408  85.8719408  63.6420000 120.6029408  85.3299408  62.9810000
 120.8439408  86.4929408  63.9200000 141.9069408  80.2649408  68.2860000
 141.7919408  79.3209408  68.3890000 142.4119408  80.3589408  67.4790000
 140.8209408  85.7819408  71.5460000 140.6039408  85.9449408  70.6280000
 140.7959408  86.6459408  71.9560000 147.3569408  61.1799408  66.2670000
 147.6309408  61.6629408  65.4870000 148.0139408  60.4909408  66.3660000
 138.4929408  80.8929408  71.3400000 138.2899408  80.2629408  70.6490000
 137.8709408  81.6069408  71.2050000 147.5929408  88.9229408  70.4380000
 147.4519408  89.3709408  71.2720000 148.5019408  88.6269408  70.4740000
 129.8979408  88.3239408  77.5680000 130.5479408  87.6229408  77.5210000
 129.0609408  87.8869408  77.4100000 120.6229408  85.0849408  79.8260000
 121.5509408  84.8679408  79.9130000 120.5909408  85.7159408  79.1080000
 149.5049408  69.6089408  63.9390000 149.2369408  69.4409408  63.0360000
 150.3389408  69.1489408  64.0320000 144.9399408  88.5519408  72.8940000
 145.6679408  88.0659408  73.2810000 145.3499408  89.3119408  72.4820000
 146.2609408  80.5759408  76.5330000 145.9599408  79.7359408  76.1870000
 147.1519408  80.4039408  76.8380000 120.9209408  89.9589408  69.9480000
 121.4189408  89.3979408  69.3520000 120.0779408  90.0829408  69.5120000
 120.1289408  60.2789408  66.1440000 120.1339408  60.2069408  65.1890000
 120.6739408  59.5509408  66.4420000 140.1059408  86.3139408  68.9570000
 140.3829408  86.3689408  68.0430000 139.8789408  87.2129408  69.1940000
 137.8029408  61.4979408  62.0150000 137.8179408  61.3079408  62.9530000
 137.9959408  60.6579408  61.5970000 141.2849408  81.4409408  63.2030000
 142.1909408  81.6019408  63.4660000 140.9289408  82.3109408  63.0260000
 144.8339408  78.1349408  75.5300000 145.1179408  77.2749408  75.8380000
 144.2629408  78.4619408  76.2250000 145.9399408  83.0769408  70.1740000
 145.0409408  82.8989408  70.4490000 145.8779408  83.8789408  69.6550000
 120.5509408  83.0329408  68.3860000 120.1859408  83.4379408  67.6000000
 119.8569408  83.1109408  69.0410000 139.0939408  85.2559408  77.6310000
 138.8449408  85.5209408  78.5160000 138.5189408  84.5169408  77.4310000
 144.6889408  86.4959408  83.9890000 145.4609408  86.4079408  83.4300000
 144.0209408  85.9579408  83.5630000 139.7889408  87.3129408  83.2930000
 140.5389408  87.1429408  82.7230000 139.6029408  88.2449408  83.1720000
 146.0789408  88.6559408  65.3270000 146.5179408  88.9459408  66.1270000
 146.5309408  87.8469408  65.0860000 141.9989408  87.5469408  61.0180000
 142.9239408  87.6119408  60.7810000 141.7279408  86.6889408  60.6910000
 137.6129408  80.7449408  63.2240000 137.4149408  79.8939408  62.8320000
 137.7729408  81.3209408  62.4770000 148.7029408  83.2359408  80.3090000
 149.5569408  83.6369408  80.1500000 148.0819408  83.8059408  79.8540000
 139.1839408  82.3919408  79.3730000 138.8759408  82.0519408  80.2130000
 138.3959408  82.4469408  78.8330000 142.4529408  82.8319408  84.3870000
 143.2899408  83.2969408  84.4070000 141.9209408  83.3219408  83.7600000
 149.3329408  80.1069408  69.6110000 150.1389408  80.5079408  69.2850000
 148.7129408  80.1949408  68.8870000 149.7389408  61.2499408  82.7270000
 149.9719408  60.5979408  82.0660000 148.7969408  61.1349408  82.8560000
 146.4519408  78.2429408  83.9800000 146.5979408  79.0739408  83.5290000
 145.5169408  78.0689408  83.8690000 122.8429408  85.7119408  83.1490000
 123.7689408  85.4969408  83.0340000 122.8479408  86.5679408  83.5780000
 148.0669408  75.0089408  80.1910000 148.0739408  75.9439408  79.9830000
 147.1889408  74.8459408  80.5340000 149.9059408  88.0329408  81.8660000
 149.3759408  88.3819408  82.5830000 150.0419408  87.1129408  82.0930000
 140.8229408  80.4389408  84.5460000 141.4419408  81.1659408  84.6110000
 140.8099408  80.2179408  83.6140000 123.7959408  62.6399408  61.5360000
 123.1589408  63.0979408  60.9870000 123.2689408  62.0539408  62.0780000
 144.2699408  89.2149408  84.6630000 144.2869408  88.9489408  85.5820000
 144.4699408  88.4149408  84.1780000 140.7379408  63.9019408  80.2470000
 140.8629408  63.9519408  79.3000000 141.6089408  64.0529408  80.6130000
 149.0199408  88.8129408  84.3330000 149.8619408  89.1639408  84.6250000
 148.8459408  88.0819408  84.9260000 146.1579408  86.4039408  63.9090000
 145.6669408  87.2129408  64.0520000 145.8099408  86.0549408  63.0890000
 137.0399408  88.4119408  84.8180000 137.5809408  88.5059408  85.6020000
 137.1749408  87.5059408  84.5410000 143.6199408  84.9529408  82.0760000
 142.8519408  84.5989408  81.6270000 144.1499408  85.3379408  81.3780000
 141.2529408  83.5169408  80.7880000 140.5179408  83.0819408  80.3570000
 140.8559408  83.9929408  81.5170000 123.1729408  89.6979408  83.8650000
 122.8949408  89.4999408  82.9710000 123.6089408  90.5479408  83.7990000
 144.4219408  69.4159408  80.1160000 145.2529408  69.6309408  80.5400000
 143.7539408  69.7569408  80.7110000 138.5739408  86.5729408  79.9790000
 139.3969408  87.0059408  80.2050000 137.9349408  86.9379408  80.5900000
 143.9579408  61.6669408  83.3620000 143.0839408  61.9459408  83.6370000
 144.0009408  60.7409408  83.6010000 143.5929408  80.4459408  66.1030000
 144.4549408  80.0469408  66.2220000 143.6239408  80.8299408  65.2270000
 141.0189408  81.9559408  77.3460000 140.6409408  82.0609408  78.2200000
 141.4569408  82.7889408  77.1720000 149.3579408  66.4659408  81.7420000
 148.9689408  66.1709408  80.9190000 149.0259408  65.8529408  82.3980000
 125.0389408  80.2599408  83.3180000 125.4329408  80.8059408  83.9980000
 124.2329408  79.9279408  83.7140000 142.3159408  60.6029408  60.0200000
 142.8489408  60.3259408  60.7650000 142.9519408  60.8169408  59.3370000
 122.0639408  62.4419408  79.6400000 122.0359408  63.1009408  78.9460000
 121.3919408  61.8059408  79.3950000 136.0279408  89.2599408  78.5900000
 135.0909408  89.1729408  78.4130000 136.1359408  88.9249408  79.4800000
 140.3859408  84.2079408  83.2040000 140.0829408  85.1069408  83.3300000
 139.8389408  83.6859408  83.7910000 120.8689408  66.2169408  60.9050000
 121.1979408  66.6709408  60.1290000 121.6129408  66.1979408  61.5060000
 130.0009408  86.2329408  81.9690000 130.8279408  85.7619408  82.0740000
 130.2609408  87.1449408  81.8330000 133.1139408  89.2469408  78.1040000
 133.4209408  88.6579408  77.4150000 132.3449408  89.6749408  77.7280000
 124.1209408 103.6749408  13.7610000 124.0209408 104.4239408  14.3480000
 124.6659408 103.0579408  14.2490000 139.4019408 107.0039408   3.4620000
 139.3069408 106.1259408   3.8320000 138.6369408 107.1089408   2.8970000
 141.2879408  95.2629408  29.9310000 140.5409408  94.9539408  30.4440000
 140.9199408  95.9259408  29.3470000 126.9639408 117.2739408   4.1330000
 126.2589408 116.7169408   4.4630000 126.9889408 118.0129408   4.7410000
 141.1249408  91.1489408  21.7350000 140.9649408  90.2999408  21.3230000
 141.6349408  91.6379408  21.0890000 126.7109408 108.7099408  21.4700000
 126.3839408 109.3649408  22.0880000 127.6529408 108.8729408  21.4250000
 131.8849408 101.9679408  12.0810000 131.2899408 101.2449408  12.2800000
 132.7569408 101.5759408  12.1090000 125.8789408  96.9689408   8.7010000
 125.4139408  96.1719408   8.4480000 125.9029408  97.4959408   7.9020000
 135.1049408 107.8279408  15.6050000 134.2939408 107.6459408  15.1300000
 135.7899408 107.7719408  14.9380000 120.6359408 104.0729408   8.5360000
 119.8129408 104.3929408   8.1640000 120.9089408 103.3719408   7.9450000
 138.8559408 108.6129408   9.2840000 138.4689408 108.1719408  10.0410000
 138.1489408 109.1559408   8.9360000 129.0639408  98.6819408  17.8260000
 128.4579408  98.2489408  18.4280000 129.3939408  97.9759408  17.2700000
 131.2259408 101.3479408   5.7040000 130.6419408 101.7979408   6.3140000
 131.6789408 100.6969408   6.2400000 137.4669408 105.2269408  17.9080000
 137.9479408 105.1439408  18.7320000 138.1319408 105.1079408  17.2300000
 142.0799408  99.5039408   6.3360000 141.9909408  99.7379408   5.4120000
 142.7389408 100.1109408   6.6740000 125.6149408 103.6859408   8.9500000
 125.7649408 103.7169408   9.8950000 124.7539408 104.0859408   8.8300000
 149.3079408 108.9599408  15.2020000 149.6479408 109.5329408  15.8900000
 149.8979408 109.0979408  14.4610000 132.9309408 115.5519408  14.1980000
 133.8639408 115.3599408  14.1090000 132.5239408 115.1209408  13.4470000
 148.0369408  95.5629408   5.5490000 147.0969408  95.6829408   5.4130000
 148.2159408  94.6789408   5.2300000 138.3629408 111.3589408   0.6810000
 137.7089408 112.0489408   0.5670000 138.2789408 110.8169408  -0.1030000
 130.6849408 105.9839408   6.6650000 131.1339408 106.8249408   6.7490000
 129.8769408 106.0929408   7.1670000 138.4319408  94.8569408  25.0460000
 138.1149408  94.5139408  25.8810000 138.3719408  94.1159408  24.4430000
 148.7999408  99.9389408  15.7730000 147.8609408  99.9999408  15.5990000
 148.8569408  99.5959408  16.6650000 122.3889408 110.7699408   3.8460000
 123.1819408 111.3059408   3.8470000 122.6729408 109.9199408   4.1820000
 137.9779408 104.4559408  10.6650000 137.2519408 104.3639408  10.0480000
 137.7039408 103.9559408  11.4340000 129.6549408 114.0029408  30.1860000
 129.0479408 114.5939408  29.7410000 130.5229408 114.3469408  29.9750000
 133.5299408 104.6779408   0.5350000 132.9009408 103.9769408   0.7060000
 133.0779408 105.2629408  -0.0730000 136.9329408 112.0279408  13.3670000
 137.2779408 112.9039408  13.1980000 137.6629408 111.4399408  13.1730000
 124.4319408 118.7859408  26.2340000 124.8979408 118.1089408  25.7430000
 123.7839408 119.1269408  25.6170000 131.7599408 113.1179408   8.5430000
 131.6899408 113.8819408   7.9720000 132.0759408 112.4179408   7.9710000
 134.5309408 116.0489408   1.8910000 135.1549408 116.0429408   1.1650000
 134.9719408 115.5639408   2.5890000 121.5889408  97.8679408   5.1380000
 121.9129408  97.0799408   4.7030000 122.3749408  98.2939408   5.4810000
 124.3779408  91.6949408  16.6380000 123.4469408  91.8319408  16.4640000
 124.7679408  91.5709408  15.7730000 136.9779408 104.3809408  28.3850000
 137.8199408 103.9829408  28.6060000 137.1409408 104.8459408  27.5640000
 131.0189408  92.1809408  18.1460000 130.7569408  93.1019408  18.1390000
 131.6919408  92.1279408  18.8240000 135.1549408  90.6799408   8.8720000
 134.7649408  91.4279408   8.4200000 135.0899408  89.9599408   8.2450000
 135.4189408 104.0349408  13.0950000 134.8099408 103.9809408  13.8320000
 134.8679408 104.2559408  12.3440000 126.8749408 116.9259408   9.7580000
 127.0919408 117.8089408  10.0560000 127.0169408 116.9499408   8.8120000
 132.2769408  99.0759408  26.9600000 131.8759408  99.8269408  26.5240000
 132.9859408  99.4519408  27.4820000 148.5349408 105.5709408   7.6430000
 148.4489408 106.1489408   6.8850000 148.1879408 106.0809408   8.3750000
 128.3539408  96.3839408   3.5020000 129.0179408  96.9059408   3.0520000
 127.9879408  96.9769408   4.1590000 144.3849408  99.4109408  17.3650000
 144.7209408  98.5179408  17.2950000 144.2909408  99.5589408  18.3060000
 127.7939408 103.7699408   7.0920000 127.1589408 103.5089408   7.7590000
 128.3649408 103.0079408   6.9930000 129.0859408  92.8069408  12.3010000
 129.2659408  93.2629408  11.4790000 129.7729408  93.1059408  12.8980000
 135.8509408 103.9929408   9.0110000 135.1649408 104.5659408   8.6690000
 135.4019408 103.1709408   9.2080000 127.6489408 107.3009408  12.5020000
 127.1329408 107.8939408  13.0490000 127.6139408 106.4609408  12.9600000
 142.4549408  93.6049408   2.6640000 141.6819408  93.5749408   2.1000000
 142.7979408  94.4919408   2.5530000 141.2289408 110.5009408  14.9470000
 140.8759408 111.0379408  15.6570000 141.9479408 111.0209408  14.5870000
 130.4099408 115.8839408  26.7950000 130.4019408 116.2829408  25.9250000
 129.6159408 116.2129408  27.2170000 131.1919408 116.2969408   1.5580000
 131.2509408 117.2469408   1.6600000 131.6389408 115.9449408   2.3270000
 124.6869408  93.6109408  12.3470000 123.8339408  93.9499408  12.0730000
 125.2309408  94.3909408  12.4540000 133.1469408 102.3189408  27.0580000
 133.5739408 102.0469408  26.2450000 133.8619408 102.4039408  27.6880000
 131.3659408 110.8169408  12.9800000 131.3449408 111.5859408  12.4090000
 132.2869408 110.5579408  12.9990000 135.5709408  94.5019408  23.2080000
 136.1229408  95.1429408  22.7600000 135.2669408  93.9189408  22.5130000
 134.5329408 109.5259408   7.8070000 134.0209408 108.9609408   8.3850000
 133.9069408 110.1799408   7.4950000 124.9169408 104.0799408   6.0540000
 125.2429408 103.2809408   6.4690000 124.3959408 104.5079408   6.7330000
 131.9419408  94.9309408  18.4310000 132.8109408  95.3169408  18.3240000
 131.7659408  94.9919408  19.3700000 122.9999408 113.7209408   4.9930000
 122.5599408 113.1309408   5.6050000 123.7909408 113.2499408   4.7310000
 129.3909408  95.9979408  13.5600000 128.4679408  95.8209408  13.7410000
 129.5449408  95.6099408  12.6990000 126.4589408 109.0469408  14.2110000
 125.7969408 108.9559408  14.8960000 127.0899408 109.6709408  14.5690000
 132.7269408  94.7419408  13.0350000 133.5559408  94.2759408  12.9230000
 132.3699408  94.4009408  13.8560000 130.9189408 105.5149408  11.9010000
 130.0709408 105.1079408  11.7250000 130.7289408 106.4519408  11.9560000
 131.2779408  98.6519408   9.3500000 131.3409408  97.9429408   9.9910000
 130.6729408  99.2789408   9.7440000 127.3769408 118.8119408   1.6800000
 126.6809408 118.2869408   1.2850000 127.2869408 118.6599408   2.6210000
 135.6899408 108.6069408   4.5490000 135.8669408 108.6029408   3.6090000
 136.2479408 107.9129408   4.9010000 126.0069408  90.8799408   4.4630000
 126.8559408  90.4709408   4.2940000 126.1609408  91.8149408   4.3310000
 129.4119408  98.7209408   6.5640000 129.9009408  98.4549408   7.3430000
 130.0189408  99.2819408   6.0810000 130.9679408 108.3959408  15.9660000
 131.6029408 107.8829408  15.4660000 130.1389408 107.9329408  15.8490000
 129.0729408 100.0809408   9.9790000 129.3089408 100.3209408  10.8750000
 128.1399408  99.8699408  10.0250000 128.6629408 113.0849408   5.7270000
 129.1639408 112.7029408   6.4480000 129.3049408 113.2099408   5.0280000
 132.1909408  93.0269408   6.6490000 132.5829408  93.5069408   7.3790000
 132.8259408  92.3399408   6.4440000 122.7639408 100.3209408  15.9390000
 122.1979408 100.7929408  15.3280000 122.1579408  99.8679408  16.5260000
 123.7929408  95.9289408  18.5460000 124.5359408  95.3939408  18.2680000
 123.0419408  95.5539408  18.0850000 127.2649408  95.4869408  10.7700000
 126.6499408  96.0649408  10.3180000 127.6409408  94.9459408  10.0760000
 124.4899408  94.3149408   8.6110000 123.8189408  93.6769408   8.8510000
 124.7519408  94.0669408   7.7250000 138.2059408 101.1969408  11.0920000
 138.7899408 101.1579408  10.3350000 137.3289408 101.0939408  10.7250000
 132.6159408  92.7419408   2.6460000 132.2479408  93.1119408   1.8440000
 133.2749408  93.3789408   2.9240000 143.6789408 109.2509408  25.6230000
 142.9449408 108.9459408  26.1550000 144.0749408 109.9529408  26.1400000
 123.9959408 100.0319408  19.2360000 124.7059408  99.4889408  18.8920000
 124.1359408 100.8909408  18.8370000 133.6049408  99.6929408   3.1680000
 134.0819408  98.9459408   3.5280000 134.2209408 100.4239408   3.2310000
 130.6809408 101.2849408   0.4750000 130.9629408 101.9649408  -0.1370000
 130.5939408 101.7389408   1.3140000 126.1979408 118.7859408   7.3920000
 125.6229408 119.3219408   7.9370000 126.9389408 119.3569408   7.1890000
 135.6389408  96.6119408   8.9870000 135.6199408  96.6119408   9.9440000
 136.5409408  96.8459408   8.7660000 136.1629408 110.3279408   9.8410000
 135.8969408 110.1039408   8.9500000 135.7949408 109.6309408  10.3840000
 138.8369408 109.6889408  13.6890000 139.6529408 109.8079408  14.1740000
 139.0429408 109.9709408  12.7980000 127.3569408 104.9479408  14.1060000
 126.7409408 104.6609408  14.7800000 127.7119408 104.1349408  13.7450000
 142.1589408 101.9809408   8.6940000 142.2029408 102.9319408   8.6020000
 142.8179408 101.6489408   8.0840000 121.5759408  91.8369408  12.3790000
 121.6699408  91.3979408  11.5340000 121.7809408  92.7539408  12.1980000
 129.7979408 103.5629408  20.7020000 129.9119408 102.6129408  20.6900000
 130.2249408 103.8659408  19.9000000 132.6309408 103.1459408  14.3340000
 132.2629408 103.3379408  13.4710000 132.9819408 102.2589408  14.2530000
 130.1429408  98.5439408   2.9460000 130.7999408  98.6049408   2.2530000
 130.5939408  98.8529408   3.7320000 122.9149408 106.4549408  14.3630000
 123.5279408 107.1049408  14.7050000 122.2449408 106.3749408  15.0420000
 129.9729408  91.6209408   9.1660000 130.8859408  91.7839408   8.9290000
 130.0159408  91.2549408  10.0490000 132.5159408  99.3919408   7.0440000
 132.9239408  98.9559408   6.2950000 132.6179408  98.7729408   7.7670000
 140.6819408 104.5549408  10.8580000 140.4699408 104.9719408  11.6930000
 139.8309408 104.3559408  10.4670000 138.2509408 100.8129408  27.5970000
 137.9399408 100.8729408  26.6940000 139.1989408 100.9269408  27.5330000
 125.0659408 102.1979408  18.1450000 125.8319408 101.7159408  17.8330000
 124.6889408 102.5859408  17.3550000 136.7989408  98.8369408  21.9130000
 136.1259408  98.2629408  21.5470000 137.3839408  98.2479408  22.3890000
 137.3339408  91.3149408  17.3720000 137.1459408  92.1649408  17.7700000
 136.5919408  90.7639408  17.6200000 124.3569408 114.6489408  13.1330000
 125.1819408 115.0809408  12.9100000 123.8739408 115.2999408  13.6410000
 126.0859408 104.8579408  11.4430000 125.4669408 105.3769408  10.9300000
 125.9959408 105.1919408  12.3360000 133.4409408 106.1729408   8.5040000
 133.3789408 105.9409408   7.5780000 132.7799408 106.8539408   8.6260000
 128.5019408  94.1379408   8.6120000 128.8629408  94.4539408   7.7840000
 128.9809408  93.3279408   8.7890000 129.2219408 119.9579408  19.5540000
 129.1209408 119.3189408  18.8490000 129.7729408 120.6449408  19.1780000
 125.8979408 116.1729408  15.7840000 124.9769408 116.4009408  15.6590000
 126.2559408 116.1269408  14.8980000 124.1719408  98.0399408   6.5580000
 123.5999408  98.3309408   7.2680000 124.3229408  98.8259408   6.0330000
 140.9309408  98.1219408  17.8530000 140.4899408  98.4399408  18.6410000
 141.2959408  98.9089408  17.4480000 123.5469408 119.1949408  14.3880000
 123.4529408 118.7309408  13.5560000 124.0779408 119.9629408  14.1760000
 127.6459408 105.5889408   0.5610000 128.1379408 104.9059408   1.0160000
 128.1499408 106.3889408   0.7110000 129.7719408  92.8839408   5.6410000
 130.6209408  92.7349408   6.0590000 129.7999408  92.3549408   4.8440000
 129.0259408 106.3989408  15.6100000 128.7289408 106.0099408  16.4320000
 128.4029408 106.0809408  14.9560000 144.9449408 100.7089408  22.4340000
 144.4059408 100.1399408  22.9830000 144.3479408 101.3989408  22.1430000
 132.9919408  96.0789408  20.9050000 133.2669408  96.9929408  20.8340000
 133.4549408  95.7489408  21.6750000 133.9919408 100.0189408  29.0960000
 134.7189408  99.4589408  29.3680000 134.3539408 100.5539408  28.3890000
 135.0069408  97.1169408  28.0480000 135.2319408  97.0419408  28.9750000
 134.1499408  96.6969408  27.9740000 139.7759408 107.0209408   6.7930000
 139.6259408 107.7959408   6.2530000 139.1299408 107.0889408   7.4960000
 144.9269408 105.3199408   9.5870000 145.3159408 104.5869408  10.0650000
 145.3279408 105.2809408   8.7190000 125.7419408 101.5499408  12.2860000
 125.5099408 101.7689408  13.1890000 126.5849408 101.9799408  12.1450000
 149.0709408  92.3679408  13.5800000 149.1899408  92.7229408  14.4610000
 149.9599408  92.2269408  13.2550000 135.3469408  97.8619408  13.5700000
 135.5059408  97.1419408  12.9600000 136.2199408  98.1279408  13.8590000
 133.9419408 117.7469408  11.2050000 133.6119408 117.6369408  12.0970000
 133.2129408 118.1429408  10.7270000 122.4759408 103.4329408  11.5170000
 122.9669408 103.3179408  12.3310000 122.3929408 104.3819408  11.4200000
 124.0809408 100.9719408  10.1910000 123.3579408 101.5829408  10.3280000
 124.6869408 101.1519408  10.9110000 122.4699408  92.2689408   9.4860000
 121.9209408  93.0069408   9.2190000 121.8819408  91.5139408   9.4670000
 123.0199408 106.0899408  11.5960000 122.9749408 106.1599408  12.5500000
 123.1089408 106.9939408  11.2930000 132.5739408 104.1909408  16.7410000
 132.6879408 103.7449408  15.9010000 133.3929408 104.6689408  16.8720000
 135.7109408 102.0629408  28.0250000 136.5479408 101.6029408  28.0980000
 135.9129408 102.9669408  28.2670000 129.4949408 105.9309408   3.8740000
 129.7659408 105.7989408   4.7830000 129.9059408 106.7569408   3.6190000
 128.0449408 108.2839408  17.2700000 127.8129408 107.5769408  17.8720000
 128.2419408 107.8409408  16.4450000 128.0199408  91.0509408  14.0630000
 128.1869408  91.8039408  13.4960000 128.5849408  91.1939408  14.8240000
 132.3299408 113.4389408   4.0320000 131.5709408 112.9229408   3.7610000
 133.0749408 113.0059408   3.6160000 123.8559408 118.2669408   6.1100000
 123.5329408 119.1219408   5.8250000 124.7399408 118.4389408   6.4320000
 122.1229408 112.1309408  17.8600000 122.8419408 111.8089408  17.3180000
 122.3069408 113.0629408  17.9750000 138.9909408  98.3469408   5.9690000
 139.9089408  98.3779408   6.2400000 138.8449408  97.4349408   5.7200000
 125.8029408 106.0779408   4.3120000 126.5949408 105.6419408   3.9980000
 125.6179408 105.6609408   5.1540000 135.6349408 101.6509408   3.7230000
 136.4549408 101.1739408   3.8460000 135.4639408 102.0589408   4.5730000
 133.6209408 105.0579408  11.2560000 132.8359408 105.3699408  11.7060000
 133.5009408 105.3309408  10.3470000 126.7349408 100.4089408  16.9120000
 127.6709408 100.2119408  16.8740000 126.3309408  99.5979408  17.2210000
 129.1019408 109.7299408  22.1000000 129.8669408 109.3959408  21.6300000
 129.3469408 110.6199408  22.3550000 128.8879408 110.4159408   1.5990000
 128.2829408 109.7779408   1.9770000 128.7719408 111.2019408   2.1330000
 133.4439408  90.5639408   5.1250000 134.2609408  90.5429408   5.6220000
 133.7179408  90.5099408   4.2090000 128.1309408 107.3219408   9.6840000
 128.1119408 108.2399408   9.4110000 127.9969408 107.3509408  10.6310000
 131.8609408  98.8709408   0.8180000 131.4729408  99.7019408   0.5460000
 132.8049408  99.0259408   0.7920000 134.0549408 110.7059408  19.8650000
 133.1819408 110.5199408  20.2090000 134.1139408 110.1809408  19.0660000
 128.7819408 104.8269408  10.5120000 127.8989408 104.6719408  10.8490000
 128.7299408 105.6859408  10.0920000 145.7759408 105.5769408  15.5950000
 146.5949408 105.4519408  15.1160000 145.8309408 104.9639408  16.3280000
 134.7319408  95.0299408   6.7360000 135.2879408  94.2539408   6.6670000
 135.2679408  95.6689408   7.2060000 134.7409408 108.3739408  28.8420000
 135.0239408 109.2489408  28.5730000 135.2609408 108.1829408  29.6220000
 134.8019408 105.4929408  16.8610000 134.9129408 106.3009408  16.3600000
 135.6729408 105.3059408  17.2110000 127.7279408 103.2519408  26.7680000
 127.4999408 102.7349408  27.5410000 128.4259408 103.8349408  27.0650000
 138.8059408 108.6449408  29.5420000 139.1739408 107.7629408  29.4910000
 139.4979408 109.2139408  29.2050000 147.4529408 102.4809408  12.6510000
 146.9679408 101.6609408  12.7380000 148.3159408 102.2169408  12.3320000
 139.8039408 100.9529408   8.8190000 140.7069408 101.2619408   8.7410000
 139.2889408 101.5889408   8.3220000 124.4319408  89.9699408   9.1520000
 124.9539408  90.3289408   9.8690000 123.7079408  90.5879408   9.0490000
 133.4919408 100.2479408  15.4210000 134.1179408 100.9619408  15.5410000
 134.0109408  99.5349408  15.0460000 140.3539408  91.1919408  14.3940000
 141.2449408  91.0649408  14.0680000 140.3279408  92.1089408  14.6690000
 132.9529408 108.1909408   4.7110000 132.8259408 108.4779408   5.6150000
 133.8859408 108.3269408   4.5450000 131.2079408 103.2309408   9.6310000
 131.4929408 103.1859408  10.5430000 130.4689408 103.8389408   9.6400000
 125.2889408 106.5969408   1.2440000 126.1979408 106.4009408   1.4730000
 125.0949408 106.0109408   0.5130000 125.9609408  91.2959408  10.8390000
 126.7089408  91.8909408  10.8830000 125.2019408  91.8499408  11.0230000
 134.0369408  99.3019408  10.0320000 133.0859408  99.2279408   9.9500000
 134.3769408  98.5189408   9.5980000 133.8409408 105.9929408  19.9150000
 133.3829408 105.6059408  19.1690000 134.1529408 106.8389408  19.5910000
 137.9259408 103.8949408  14.1400000 136.9729408 103.9149408  14.2200000
 138.2449408 104.1439408  15.0080000 137.9639408  94.7779408   0.3340000
 137.0519408  95.0459408   0.4500000 138.1979408  94.3589408   1.1630000
 126.0819408 101.7559408   3.1260000 125.2619408 102.2489408   3.0890000
 126.7199408 102.3779408   3.4750000 140.7849408 101.9599408  17.6010000
 141.3309408 101.2469408  17.2700000 140.9109408 102.6709408  16.9720000
 136.0959408 100.7469408   9.5820000 135.3069408 100.3579408   9.9590000
 136.3329408 100.1619408   8.8630000 131.8799408 101.9409408   3.1400000
 131.5959408 101.9629408   4.0530000 132.2839408 101.0799408   3.0340000
 130.6029408 108.1769408  12.3180000 129.6709408 108.0139408  12.4610000
 130.6839408 109.1309408  12.3230000 136.8019408 110.5669408  15.9690000
 137.5409408 109.9729408  15.8380000 136.7199408 111.0359408  15.1380000
 126.3819408  93.8779408   6.2780000 126.8239408  94.1609408   7.0780000
 126.7769408  94.4079408   5.5850000 137.8219408 100.6709408  24.7140000
 137.0509408 100.2079408  24.3860000 138.5589408 100.2549408  24.2680000
 140.9929408 106.8169408   1.4860000 141.3499408 107.6909408   1.3270000
 140.4049408 106.9299408   2.2320000 147.1529408 103.0869408  16.5300000
 147.5009408 102.5009408  17.2020000 146.4709408 102.5749408  16.0950000
 148.4819408 100.9349408   9.6410000 148.8959408 101.1749408  10.4700000
 148.9019408 101.4979408   8.9910000 134.8989408 116.5689408   8.8670000
 134.8359408 116.8249408   9.7880000 134.8469408 115.6129408   8.8800000
 126.4319408  99.2409408   9.6680000 125.6539408  99.7959408   9.6110000
 126.1929408  98.4429408   9.1960000 137.9739408 100.1959408   4.3400000
 138.5639408 100.9399408   4.4650000 138.2259408  99.5729408   5.0210000
 134.5639408 101.3319408  12.5050000 135.3129408 101.9219408  12.4160000
 134.8419408 100.5249408  12.0710000 125.8949408 109.3489408  10.4970000
 125.2319408 109.5939408  11.1420000 125.4229408 108.8129408   9.8600000
 130.5329408  94.8369408  11.0850000 130.4469408  95.5079408  10.4070000
 131.3799408  95.0149408  11.4930000 128.3729408 113.4639408  13.1860000
 129.1639408 113.9339408  12.9220000 127.6539408 113.9979408  12.8490000
 128.0019408 103.8009408   4.2870000 128.6839408 104.4149408   4.0160000
 127.9259408 103.9279408   5.2330000 128.5919408 110.0079408  11.6570000
 127.6919408 109.6829408  11.6220000 128.5009408 110.9549408  11.7650000
 128.5059408 119.5499408   4.7200000 129.2599408 119.8159408   4.1930000
 128.6619408 119.9459408   5.5770000 124.0379408 117.2559408   9.9530000
 124.9729408 117.0479408   9.9550000 123.9999408 118.1869408   9.7350000
 137.8569408  95.7969408   6.3200000 138.7739408  95.6119408   6.1180000
 137.3679408  95.4069408   5.5960000 144.8209408  97.4299408   8.6100000
 144.9309408  96.7309408   7.9650000 145.4989408  98.0679408   8.3900000
 129.6499408 101.8419408   7.8760000 130.4039408 102.2779408   8.2730000
 129.2779408 101.3139408   8.5820000 137.8409408 101.3329408  21.0730000
 137.5779408 100.4969408  21.4570000 137.0239408 101.8229408  20.9800000
 136.4069408  93.6289408  19.0480000 137.1099408  94.2789408  19.0450000
 136.1969408  93.5069408  19.9740000 131.6449408  98.1269408  23.6070000
 131.9199408  97.4939408  24.2710000 131.9309408  98.9729408  23.9510000
 138.3389408  98.6359408  17.0160000 138.1949408  99.4509408  17.4970000
 139.2549408  98.4159408  17.1850000 127.8239408  99.7049408   1.9020000
 128.6989408  99.3949408   2.1340000 127.3699408  99.7939408   2.7400000
 133.4879408  98.3599408  17.7820000 132.5719408  98.4729408  18.0380000
 133.7179408  99.1799408  17.3450000 147.1329408 103.4899408   6.5760000
 146.2129408 103.7239408   6.4540000 147.5309408 104.2739408   6.9540000
 135.6989408 103.6459408  21.5090000 134.9289408 104.2119408  21.4530000
 135.7449408 103.3939408  22.4310000 125.3759408  95.8509408   4.5400000
 125.9379408  96.5929408   4.3170000 125.1269408  96.0039408   5.4520000
 141.4999408 110.8909408  21.6630000 141.5299408 111.8449408  21.5890000
 141.2169408 110.5929408  20.7990000 136.1989408 102.7839408  24.3270000
 136.9519408 102.3809408  24.7590000 135.5079408 102.1229408  24.3830000
 140.3079408 102.6819408  21.5200000 139.5659408 102.7069408  22.1230000
 140.0339408 103.2229408  20.7790000 143.5869408 101.2759408   3.3410000
 142.6949408 101.6219408   3.3230000 144.1119408 101.9439408   2.9000000
 127.8799408 116.0279408  23.7110000 128.5289408 116.2299408  23.0370000
 127.0729408 115.8609408  23.2240000 138.4169408 104.7709408  20.7260000
 138.8399408 105.1919408  21.4750000 137.5249408 104.5919408  21.0240000
 134.9759408 105.1649408  23.9550000 135.6309408 105.7189408  23.5300000
 135.4869408 104.4979408  24.4130000 140.1269408 107.4139408  17.2570000
 140.8569408 108.0169408  17.1180000 140.2649408 107.0689408  18.1390000
 137.7229408  99.0149408  14.5310000 138.2079408  99.8399408  14.5330000
 137.7629408  98.7109408  15.4380000 137.0589408  94.2909408   3.6940000
 137.3229408  93.4279408   4.0130000 136.3329408  94.1129408   3.0950000
 132.1429408 103.0499408  23.4810000 132.7959408 103.1569408  22.7890000
 131.8279408 103.9369408  23.6530000 129.2999408  94.7489408  16.6790000
 128.4779408  94.7659408  16.1890000 129.0309408  94.7099408  17.5970000
 130.2849408  99.8869408  12.5980000 130.8409408  99.1149408  12.4900000
 130.1829408  99.9779408  13.5460000 131.5199408 100.6549408  24.6330000
 131.7749408 101.4879408  24.2350000 130.7539408 100.3749408  24.1320000
 148.8309408  97.2719408   2.2880000 148.8699408  96.9779408   3.1980000
 149.5399408  96.7969408   1.8530000 132.8319408  96.0959408  25.8560000
 132.2219408  96.7999408  26.0740000 132.2899408  95.4319408  25.4300000
 142.0739408  99.3869408  29.4840000 142.9599408  99.0269408  29.4310000
 141.4999408  98.6319408  29.3590000 137.8369408  95.8009408  18.3520000
 138.7399408  95.6199408  18.0890000 137.7859408  96.7559408  18.3950000
 135.8959408 109.4069408  24.8660000 135.5879408 108.8379408  25.5710000
 136.8499408 109.3899408  24.9430000 132.3099408 107.8379408  18.4750000
 131.5999408 107.7869408  17.8350000 132.9599408 108.4099408  18.0670000
 141.5769408 100.0929408  13.5580000 140.8019408 100.5149408  13.9290000
 141.6999408 100.5189408  12.7100000 134.6799408 119.2389408  26.7010000
 135.3729408 119.7719408  26.3100000 134.3379408 119.7769408  27.4150000
 125.6739408 113.6199408   0.0820000 126.0949408 113.8689408   0.9050000
 126.3839408 113.2649408  -0.4520000 123.0279408 108.2679408   1.4330000
 123.1569408 109.2159408   1.4620000 123.8729408 107.9189408   1.1520000
 125.6639408  98.1749408  18.2520000 126.2629408  97.8789408  18.9380000
 125.1889408  97.3859408  17.9920000 123.5549408 102.7819408   3.2750000
 122.7219408 102.4139408   3.5720000 123.4619408 103.7249408   3.4110000
 132.0799408  92.2879408  25.6550000 131.8949408  92.3419408  26.5920000
 131.6749408  93.0719408  25.2840000 140.1159408  93.8369408  15.0270000
 140.6079408  94.5009408  14.5440000 139.2639408  93.8059408  14.5920000
 129.1499408 119.6889408  22.5040000 129.9349408 120.2339408  22.5540000
 129.1679408 119.3219408  21.6200000 130.2899408 106.9219408  26.2360000
 130.6129408 106.3839408  25.5120000 130.5349408 107.8159408  25.9980000
 129.0229408 100.0999408  23.4030000 128.3649408 100.6929408  23.7660000
 128.5369408  99.3039408  23.1870000 122.6359408  99.1879408  12.6550000
 122.1249408  99.8089408  13.1730000 121.9839408  98.6069408  12.2650000
 130.1199408  91.7629408   3.4120000 129.5699408  91.8339408   2.6310000
 130.9739408  92.0939408   3.1340000 135.5569408 115.5499408  26.2860000
 134.8219408 114.9969408  26.0220000 136.0899408 115.6339408  25.4950000
 134.3109408 100.8199408  25.0000000 133.4729408 100.6859408  24.5580000
 134.6099408  99.9379408  25.2200000 144.7679408  96.0699408  17.1460000
 143.8289408  96.0299408  16.9640000 145.1819408  95.7409408  16.3480000
 125.1569408 101.4689408  15.1180000 124.3929408 101.0489408  15.5120000
 125.9069408 101.0229408  15.5130000 136.3049408 107.8459408  18.6500000
 136.4699408 108.5339408  18.0040000 136.6669408 107.0539408  18.2540000
 131.4229408  91.4139408  22.3640000 131.7979408  91.2949408  23.2370000
 132.1729408  91.6199408  21.8060000 127.8019408 106.5439408   7.0640000
 127.6149408 105.6139408   7.1890000 127.8329408 106.9049408   7.9500000
 129.5459408 104.8449408  27.9910000 129.9689408 105.6099408  27.6000000
 129.0599408 105.1949408  28.7380000 132.7309408 102.2139408  18.9580000
 132.2289408 101.4239408  18.7610000 132.6519408 102.7509408  18.1690000
 123.0389408 117.9559408  28.5700000 123.2659408 117.7619408  27.6600000
 122.9049408 118.9029408  28.5870000 128.8229408 109.2789408  28.8730000
 129.0599408 108.7649408  29.6450000 128.2279408 109.9509408  29.2050000
 130.8119408  94.5099408  24.7060000 129.9129408  94.5729408  25.0290000
 130.7219408  94.4639408  23.7540000 127.4109408  98.2469408  22.5390000
 127.0039408  97.3889408  22.6570000 126.8979408  98.6629408  21.8460000
 148.9339408  89.9049408  27.3680000 149.3039408  90.6489408  27.8430000
 149.4589408  89.8439408  26.5700000 138.8269408  93.5309408  22.3500000
 138.8589408  92.6169408  22.6340000 139.3369408  93.5479408  21.5400000
 133.0339408 104.4019408   3.2410000 133.4299408 104.6769408   2.4150000
 132.6019408 103.5729408   3.0360000 134.6579408  91.6439408  24.3280000
 135.2989408  91.5509408  25.0330000 133.8909408  92.0299408  24.7510000
 129.2199408 100.8319408  20.8010000 128.2959408 100.9889408  20.6070000
 129.2279408 100.5439408  21.7140000 128.1889408 107.1529408  23.5900000
 129.0689408 107.0679408  23.9560000 127.9749408 108.0809408  23.6910000
 127.2109408  98.0059408   5.3860000 126.6419408  98.7579408   5.5510000
 127.9689408  98.1489408   5.9520000 141.0649408  99.6399408   2.0140000
 141.5329408  99.0169408   2.5690000 141.5449408  99.6309408   1.1850000
 124.8949408 108.8529408   6.4910000 125.2919408 109.6979408   6.7040000
 125.4089408 108.5259408   5.7530000 120.8779408 119.1329408   1.2170000
 121.1779408 119.6449408   0.4660000 121.0379408 118.2229408   0.9670000
 126.9089408  94.5699408  15.4710000 126.4269408  95.1219408  14.8560000
 126.2819408  94.3849408  16.1700000 135.2509408  98.2789408  25.3330000
 134.5369408  97.6459408  25.4040000 135.7219408  98.2039408  26.1630000
 136.1519408 106.8349408   6.9130000 135.4469408 106.5409408   6.3350000
 135.7099408 107.0769408   7.7270000 135.4429408  90.1609408  13.2290000
 136.1079408  89.5109408  13.4580000 135.5879408  90.8799408  13.8430000
 144.0269408 109.3799408  21.4100000 144.2849408 108.4959408  21.6720000
 143.1719408 109.5119408  21.8210000 134.3959408 108.1949408  10.7400000
 134.3709408 108.1429408  11.6950000 134.2869408 107.2889408  10.4480000
 141.5419408  92.2789408  24.3060000 141.1949408  92.1159408  23.4290000
 141.4429408  91.4439408  24.7630000 134.6329408 113.1429408  10.1660000
 134.8209408 113.6079408   9.3500000 134.7559408 112.2189408   9.9490000
 135.3159408 102.0549408  16.3340000 134.9349408 102.8129408  16.7780000
 136.1729408 101.9419408  16.7450000 142.2929408 107.8109408  23.8080000
 142.1829408 107.0259408  24.3450000 142.7159408 108.4419408  24.3890000
 129.7159408 107.2639408   0.6440000 130.4809408 106.8889408   0.2080000
 130.0779408 107.7609408   1.3780000 129.6429408 117.8269408  24.9720000
 129.4569408 117.5769408  24.0670000 130.3899408 118.4219408  24.9080000
 127.2109408 101.8149408  24.3940000 126.3699408 102.1359408  24.0660000
 127.5599408 102.5409408  24.9100000 131.3649408  99.9299408  18.7550000
 130.7509408  99.2719408  18.4300000 131.2129408  99.9549408  19.7000000
 134.3869408 110.9349408   1.0510000 133.5169408 111.2199408   0.7720000
 134.8489408 110.7409408   0.2360000 130.7769408  99.9669408  15.3550000
 131.7099408 100.1599408  15.2610000 130.7469408  99.1889408  15.9110000
 139.8279408 105.7489408  13.0870000 140.5869408 105.7009408  13.6680000
 139.2939408 104.9909408  13.3260000 131.3459408 103.1939408  28.8840000
 130.7059408 103.7409408  28.4290000 131.9039408 102.8469408  28.1880000
 148.4329408  91.3169408  17.7720000 148.3759408  90.3929408  18.0160000
 148.3789408  91.7879408  18.6040000 136.9629408 106.6139408  22.6300000
 136.8069408 107.5369408  22.8310000 137.8629408 106.5879408  22.3060000
 146.9299408 101.9079408   1.8610000 146.9209408 102.4829408   2.6270000
 147.6339408 101.2839408   2.0360000 135.8339408  93.3109408   1.4930000
 136.3929408  92.5349408   1.4550000 135.4889408  93.4019408   0.6050000
 133.8929408 109.7199408  17.2500000 133.8199408 110.5249408  16.7370000
 134.7049408 109.3139408  16.9450000 130.5189408  97.1779408  15.9270000
 130.5439408  96.3239408  16.3590000 130.1409408  96.9999408  15.0660000
 135.9109408 117.6449408  20.9300000 135.4609408 116.9469408  20.4540000
 135.2979408 117.8989408  21.6190000 135.5579408  94.1889408  26.1150000
 134.8629408  94.8469408  26.1260000 135.7909408  94.1009408  25.1910000
 137.6369408 120.0739408  22.6510000 137.4279408 119.3739408  22.0330000
 137.3079408 119.7569408  23.4920000 129.3779408  98.0839408  28.2570000
 128.8019408  98.1769408  27.4980000 130.1869408  98.5259408  28.0000000
 127.9469408  97.0969408  19.7360000 127.9239408  96.1409408  19.7090000
 128.7869408  97.3059408  20.1460000 136.8989408 119.9439408   5.6780000
 136.7499408 119.2089408   6.2740000 136.6159408 119.6199408   4.8230000
 129.8299408 117.2289408   5.4010000 128.9329408 117.4469408   5.1470000
 130.3679408 117.5429408   4.6740000 138.4289408 119.3959408  28.3290000
 137.9429408 118.5779408  28.2260000 138.7299408 119.3839408  29.2380000
 121.1219408  96.0539408   9.6410000 120.6489408  96.3209408   8.8530000
 121.9209408  96.5809408   9.6320000 131.1519408 112.9069408  20.7830000
 131.1849408 111.9589408  20.9060000 130.5209408 113.0349408  20.0740000
 131.0869408 115.7069408   7.3250000 130.8939408 116.1889408   8.1280000
 130.7599408 116.2699408   6.6230000 122.6749408 108.7829408  10.9760000
 123.1839408 109.3299408  11.5740000 123.0549408 108.9529408  10.1140000
 133.9669408 105.5319408   5.7910000 134.1179408 104.5939408   5.6770000
 133.3829408 105.7699408   5.0710000 122.1679408  94.6769408  12.0900000
 121.6919408  95.0179408  11.3330000 121.8439408  95.1909408  12.8290000
 129.7219408 118.0699408   8.6160000 129.4219408 118.0619408   7.7080000
 129.1469408 118.6979408   9.0530000 131.7279408 110.3879408  21.2710000
 131.6209408 109.5149408  20.8940000 132.3419408 110.2629408  21.9960000
 148.0529408 115.8899408  12.2050000 148.2489408 116.7309408  12.6180000
 147.0989408 115.8779408  12.1250000 133.8599408  96.7389408   2.4700000
 133.0679408  97.2019408   2.1940000 133.5509408  96.0939408   3.1060000
 124.9999408 119.5199408  18.2440000 125.1339408 119.6689408  19.1800000
 124.6149408 120.3359408  17.9240000 130.5059408 109.8669408   6.1100000
 129.8559408 109.5139408   5.5030000 129.9949408 110.3779408   6.7380000
 133.0909408  95.1259408   4.6640000 133.6829408  95.1169408   5.4160000
 132.3979408  94.5079408   4.8970000 123.3269408 114.6049408  19.3680000
 124.2059408 114.2289408  19.3230000 123.4169408 115.4729408  18.9750000
 120.0379408 111.4779408   4.6990000 120.9309408 111.1549408   4.5830000
 119.4899408 110.8369408   4.2450000 135.7609408 115.8819408   4.7460000
 135.6409408 115.0999408   4.2060000 134.9199408 115.9989408   5.1890000
 134.2179408 110.3289408  13.1910000 134.4609408 111.2159408  12.9250000
 135.0449408 109.9189408  13.4450000 137.6079408 111.4719408  21.4500000
 137.1129408 112.1989408  21.8280000 137.2049408 110.6879408  21.8230000
 132.8429408 114.9729408  21.9030000 132.4879408 114.2539408  21.3800000
 133.3269408 115.5089408  21.2750000 124.6779408 112.4899408  16.5850000
 125.2769408 113.2359408  16.6160000 125.2109408 111.7439408  16.8610000
 125.7979408 111.3969408   6.7650000 126.4539408 111.7799408   7.3470000
 124.9819408 111.4349408   7.2640000 137.4849408 117.6719408   7.7400000
 136.6389408 117.2889408   7.9700000 137.8719408 117.0489408   7.1250000
 122.3099408 108.7869408   5.5240000 121.6629408 108.6259408   6.2120000
 123.1549408 108.6519408   5.9530000 134.3059408 118.7819408   7.3720000
 134.7559408 118.1469408   7.9280000 133.9669408 118.2639408   6.6420000
 144.3189408 114.7159408  14.1060000 144.8969408 113.9829408  13.8980000
 144.5489408 115.3919408  13.4680000 126.4959408 108.9039408   2.3800000
 125.9039408 109.5189408   1.9470000 125.9969408 108.0889408   2.4350000
 125.8519408 117.3879408  29.9390000 125.2559408 117.5509408  29.2070000
 125.3619408 116.8089408  30.5230000 136.4369408 109.0669408  21.2430000
 136.5039408 108.3559408  20.6060000 135.6939408 109.5899408  20.9420000
 127.2649408 113.0889408   3.3920000 127.5729408 113.8519408   2.9040000
 127.6459408 113.1919408   4.2640000 130.3759408 113.4779408  17.1180000
 129.6279408 113.2069408  17.6500000 130.5139408 112.7509408  16.5100000
 135.4449408 115.1009408  14.0140000 136.2459408 115.2109408  13.5020000
 135.0809408 114.2679408  13.7140000 129.1669408  95.4379408   5.7480000
 128.8509408  95.6709408   4.8750000 129.4189408  94.5179408   5.6750000
 124.2729408 110.1469408  12.5690000 123.8439408 110.9559408  12.8460000
 125.0339408 110.0699408  13.1450000 123.2469408 105.4839408   3.2100000
 123.6359408 106.1419408   2.6340000 123.7999408 105.4919408   3.9910000
 124.1789408 107.7809408   8.9290000 124.2309408 108.1619408   8.0530000
 123.5919408 107.0319408   8.8310000 131.1639408 119.3629408  14.0990000
 131.9599408 119.0219408  14.5070000 130.8289408 120.0059408  14.7250000
 131.2709408 119.4239408   0.7540000 131.1439408 119.1009408  -0.1380000
 130.7259408 120.2099408   0.8040000 130.1639408 104.3359408  17.9330000
 129.7059408 103.4989408  17.8530000 130.9369408 104.2409408  17.3770000
 126.7049408 114.8669408   7.0240000 127.3139408 114.3839408   6.4660000
 126.0519408 115.2189408   6.4190000 120.7809408 107.7779408   3.0700000
 121.3749408 107.8329408   3.8190000 121.3059408 108.0689408   2.3250000
 126.9129408 116.0559408  13.0170000 126.7609408 116.9919408  13.1450000
 127.8609408 115.9539408  13.1010000 129.9689408 115.5049408  11.5150000
 130.0609408 116.2039408  12.1630000 129.5309408 115.9229408  10.7730000
 132.8559408  92.0519408   9.6080000 133.6339408  91.5559408   9.8640000
 132.6389408  92.5739408  10.3800000 130.9059408 112.2719408   1.9450000
 130.8709408 111.3879408   1.5790000 130.4339408 112.8129408   1.3120000
 120.6149408 104.7429408   2.4330000 119.9859408 105.4539408   2.5520000
 121.4659408 105.1429408   2.6100000 135.8529408 113.8829408   7.9390000
 135.9139408 113.7729408   6.9900000 136.7569408 114.0099408   8.2250000
 127.6779408 105.6369408  18.2270000 127.3809408 105.6059408  19.1360000
 128.4549408 105.0779408  18.2080000 124.3649408 112.5619408  10.9050000
 123.8259408 113.0119408  11.5560000 125.0559408 113.1889408  10.6910000
 131.6299408 113.2589408  11.2250000 131.9139408 113.2529408  10.3110000
 130.9499408 113.9319408  11.2610000 123.3079408 112.3489408  14.1740000
 123.6449408 113.1049408  13.6930000 123.8179408 112.3319408  14.9840000
 140.0859408  93.0319408   1.4180000 140.4329408  92.3479408   0.8450000
 139.2249408  92.7079408   1.6830000 148.1769408  92.4219408  20.1510000
 147.3749408  92.2089408  20.6290000 148.4289408  93.2859408  20.4760000
 139.2209408 118.9019408   9.3070000 138.6819408 119.2899408   9.9960000
 138.5979408 118.6619408   8.6210000 120.7819408 106.6869408  15.9170000
 120.1779408 106.2529408  16.5200000 120.3069408 107.4619408  15.6180000
 126.7389408 114.1779408   9.9850000 126.8389408 115.0859408  10.2700000
 126.8689408 114.2079408   9.0370000 130.4329408  91.4439408  15.7220000
 130.5989408  91.4719408  16.6650000 130.7079408  92.3039408  15.4050000
 131.3089408 109.2199408  25.3400000 132.0399408 109.3309408  24.7320000
 131.4799408 109.8519408  26.0380000 123.3309408 109.3729408  18.2010000
 122.4419408 109.5659408  18.5000000 123.8949408 109.6769408  18.9110000
 146.3379408  98.5209408  14.7070000 145.9319408  99.3879408  14.7270000
 145.5999408  97.9109408  14.7000000 123.1059408 111.9459408   8.1800000
 123.4189408 112.7029408   8.6760000 122.1519408 112.0229408   8.2010000
 135.4369408 113.2539408  20.0090000 136.0059408 113.1119408  19.2530000
 135.0009408 112.4129408  20.1430000 127.0619408 111.4499408   9.2770000
 127.2629408 112.2119408   9.8210000 126.5489408 110.8769408   9.8470000
 132.4839408 116.0199408  29.2340000 132.1589408 115.9759408  30.1330000
 131.7009408 116.1619408  28.7020000 132.0659408 118.8869408   9.7040000
 131.2279408 118.5389408   9.3980000 132.5209408 119.1529408   8.9050000
 131.2699408 116.0949408  16.5260000 131.8939408 116.0249408  15.8040000
 131.2699408 115.2259408  16.9290000 130.8659408 108.4719408   2.7640000
 130.6719408 109.4039408   2.8690000 131.5619408 108.2989408   3.3990000
 133.6439408  90.4429408   1.8470000 132.8629408  90.2199408   1.3410000
 133.6489408  91.3999408   1.8730000 123.1739408  90.5829408   4.5740000
 124.1289408  90.6499408   4.5680000 122.8779408  91.4079408   4.9580000
 129.4209408 111.4549408   7.9740000 128.8169408 111.4819408   8.7160000
 130.2109408 111.8929408   8.2920000 148.8549408 113.9129408  10.4620000
 148.1329408 113.2899408  10.3720000 148.5459408 114.5469408  11.1090000
 129.8059408 105.8759408  21.7940000 128.8959408 106.1509408  21.9020000
 129.7489408 104.9669408  21.5000000 127.9939408 111.3219408  14.6600000
 128.8919408 111.3319408  14.9910000 127.9779408 112.0019408  13.9870000
 145.4639408 115.1709408   8.5830000 144.5769408 115.4189408   8.3240000
 145.9009408 114.9499408   7.7600000 144.4759408 110.8279408  19.0240000
 145.3199408 111.0919408  18.6570000 144.7019408 110.2359408  19.7420000
 128.2409408 109.7249408  25.2630000 128.0479408 109.1849408  26.0300000
 129.1959408 109.7239408  25.2030000 132.9509408  91.3049408  12.5350000
 133.5739408  90.6049408  12.7320000 132.1069408  90.9639408  12.8300000
 149.8429408 116.8959408   8.9490000 149.2369408 116.1979408   8.6960000
 150.4319408 116.4839408   9.5810000 133.2739408 116.0209408   5.5640000
 133.0779408 115.8549408   6.4860000 132.5129408 115.6839408   5.0920000
 133.9679408 113.1959408  12.7510000 133.0609408 113.1179408  12.4530000
 134.4749408 113.3119408  11.9480000 127.9659408 113.2009408  24.6000000
 128.6309408 112.7009408  24.1270000 127.9549408 114.0549408  24.1660000
 148.8189408 118.9629408  19.5480000 149.3499408 118.7979408  20.3270000
 147.9169408 118.8389408  19.8420000 127.1999408  92.1849408  19.7970000
 127.7519408  91.4189408  19.6400000 126.4489408  91.8439408  20.2840000
 136.6659408 102.2829408   1.1970000 136.1439408 103.0379408   0.9240000
 136.2319408 101.9649408   1.9890000 131.4439408 105.8639408  23.9440000
 132.0879408 106.3889408  23.4680000 130.7859408 105.6379408  23.2870000
 134.5009408 102.8519408   5.8720000 134.3729408 102.6739408   6.8040000
 133.6179408 102.8409408   5.5020000 130.8959408 109.7499408   9.9370000
 130.1039408 109.8069408  10.4710000 131.6099408 109.9329408  10.5480000
 139.0259408 104.6979408   5.6060000 139.1789408 105.5409408   6.0320000
 138.8219408 104.0999408   6.3250000 126.7689408 118.4729408  14.2330000
 127.3599408 119.2059408  14.4070000 125.9639408 118.6979408  14.6990000
 129.7699408 112.6009408  26.6800000 129.2829408 112.6389408  25.8560000
 129.7329408 113.4939408  27.0220000 147.3529408  90.3099408  12.8330000
 147.5099408  89.6729408  13.5300000 147.9369408  91.0399408  13.0390000
 132.1129408 108.3489408   7.7370000 131.7449408 108.5769408   8.5910000
 131.5649408 108.8179408   7.1070000 144.6629408 109.5749408  12.4850000
 144.9049408 108.8659408  13.0800000 144.1909408 109.1409408  11.7740000
 121.4539408 119.7109408  15.8930000 121.4329408 120.6619408  16.0040000
 122.2849408 119.5399408  15.4500000 126.8329408 110.5419408  17.8900000
 127.4509408 109.8449408  17.6710000 126.2749408 110.1639408  18.5700000
 145.2199408 104.8659408   1.3530000 145.3179408 104.0859408   0.8060000
 144.4369408 105.3009408   1.0120000 138.8679408 117.6099408   3.3490000
 139.7269408 117.3279408   3.6620000 138.2529408 117.2769408   4.0020000
 128.3579408  94.1779408   1.8600000 128.4489408  94.8209408   2.5630000
 127.5369408  93.7239408   2.0540000 131.2019408 118.7629408   3.4690000
 131.2119408 119.5939408   3.9450000 131.6049408 118.9659408   2.6240000
 126.1329408 113.5059408  20.1000000 126.3269408 113.2889408  19.1880000
 126.9599408 113.8419408  20.4480000 130.2109408 118.4339408  11.9620000
 131.0079408 118.2959408  11.4500000 130.5229408 118.6039408  12.8510000
 137.3879408 112.3639408  27.4260000 137.6389408 112.8729408  28.1970000
 138.1209408 112.4709408  26.8190000 121.6809408 118.4499408   7.5820000
 122.3499408 117.9409408   7.1260000 120.8959408 117.9039408   7.5440000
 145.9239408 112.7609408  13.2040000 145.7279408 112.7439408  12.2670000
 146.0819408 111.8459408  13.4340000 139.3099408 116.6769408  14.0320000
 139.6109408 116.8749408  14.9190000 139.3619408 115.7229408  13.9680000
 123.3539408 114.7089408   9.0660000 123.7559408 115.5449408   9.3010000
 122.5179408 114.9489408   8.6650000 121.4129408 116.7549408   0.3960000
 122.1889408 117.0679408  -0.0690000 121.2349408 115.8959408   0.0140000
 149.6089408 117.8679408  15.3230000 150.1049408 117.1339408  14.9590000
 150.2649408 118.5469408  15.4810000 142.3659408 104.6299408   8.6880000
 141.7399408 104.6659408   9.4110000 143.1379408 105.0919408   9.0160000
 121.5119408 109.0599408  13.6060000 120.8219408 109.4449408  13.0660000
 122.0049408 108.5029408  13.0030000 123.9449408 116.8669408  18.1460000
 123.7629408 116.8199408  17.2080000 124.4529408 117.6719408  18.2510000
 133.2799408 112.0519408  15.6120000 132.3279408 111.9589408  15.6370000
 133.5199408 111.8259408  14.7140000 132.9559408 111.3659408   6.3640000
 133.4859408 111.8059408   5.6990000 132.4029408 110.7609408   5.8690000
 123.4409408  96.1809408   1.9050000 124.0029408  96.8479408   1.5100000
 123.9759408  95.7989408   2.6010000 137.0119408 113.5979408   0.0990000
 137.4669408 114.3679408   0.4400000 136.1409408 113.9179408  -0.1370000
 127.1949408 112.4749408  28.1130000 126.6079408 112.3649408  27.3650000
 128.0739408 112.3999408  27.7400000 138.2589408 102.5979408   7.4360000
 137.7069408 101.9699408   6.9700000 137.6589408 103.0499408   8.0290000
 120.1369408  93.5589408   5.8370000 119.9919408  92.6449408   5.5950000
 120.0729408  93.5669408   6.7920000 135.3399408 110.8529408  28.1340000
 134.7079408 111.5289408  27.8920000 136.1799408 111.1839408  27.8140000
 139.9039408  90.2909408  26.3150000 139.3069408  90.0529408  27.0240000
 140.2959408  91.1169408  26.5980000 146.3759408 113.1479408  22.1470000
 145.9069408 113.8409408  21.6830000 147.2419408 113.1299408  21.7400000
 132.6159408 112.0489408  24.5270000 132.7129408 111.7699408  25.4380000
 133.1399408 111.4229408  24.0270000 124.7479408 116.4299408   2.0810000
 124.8309408 115.7089408   2.7050000 123.9279408 116.8609408   2.3190000
 129.2759408 116.4629408  14.7030000 129.7309408 116.2569408  15.5190000
 129.1089408 117.4049408  14.7520000 143.3719408 119.3539408  16.9710000
 143.3079408 118.3989408  16.9860000 142.9949408 119.6059408  16.1290000
 136.2559408 113.4489408  22.4580000 135.9049408 113.5529408  21.5740000
 135.4959408 113.5559408  23.0320000 126.9949408 105.9949408  20.7340000
 126.4209408 105.7369408  21.4560000 126.9939408 106.9519408  20.7580000
 136.4109408 117.9309408  16.0400000 136.7929408 118.4529408  16.7440000
 136.9819408 118.0879408  15.2870000 134.1419408 114.1589408  24.0840000
 133.6309408 113.3779408  24.2940000 133.5819408 114.6599408  23.4910000
 133.5379408 106.9969408  22.3460000 134.1009408 106.3869408  22.8230000
 133.4289408 106.5979408  21.4830000 133.4829408 109.4799408  23.5240000
 133.6019408 108.6709408  23.0260000 134.1959408 109.4769408  24.1620000
 125.5179408 110.8639408   0.6340000 124.6129408 110.9029408   0.3240000
 125.8689408 111.7369408   0.4600000 123.9199408 113.7329408  27.9040000
 123.7749408 112.7969408  27.7640000 124.6069408 113.7729408  28.5690000
 143.3409408 115.3679408  26.2690000 143.8739408 115.7849408  25.5910000
 142.6439408 115.9989408  26.4470000 141.0999408 117.1969408  26.2780000
 140.7519408 117.3389408  25.3980000 141.3499408 118.0699408  26.5810000
 134.6979408 115.7839408  19.6430000 134.8279408 115.7939408  18.6940000
 134.6369408 114.8559408  19.8670000 131.6579408 119.4879408  25.1230000
 131.5199408 120.2759408  25.6490000 132.5939408 119.3049408  25.2060000
 125.6269408 115.5319408  22.0670000 126.1349408 115.9269408  21.3580000
 125.2669408 114.7309408  21.6870000 123.5699408 110.9729408  27.9310000
 122.6959408 110.8599408  27.5580000 124.1639408 110.6609408  27.2500000
 144.5209408 107.0009408  22.3890000 145.1209408 106.3069408  22.6620000
 143.6929408 106.7869408  22.8180000 131.6979408 110.0789408  29.7730000
 130.8099408 109.8989408  29.4640000 132.0089408 109.2409408  30.1130000
 130.6369408 111.0749408  15.7480000 131.0509408 110.3259408  16.1760000
 130.8889408 110.9959408  14.8280000 127.8009408 107.6069408  26.9660000
 127.9509408 108.0929408  27.7770000 128.6709408 107.3129408  26.6970000
 134.6939408 117.6009408  29.4540000 133.7959408 117.3609408  29.6810000
 134.6029408 118.1929408  28.7070000 134.6019408 118.8039408  23.5100000
 135.1489408 118.3629408  24.1610000 134.6489408 119.7299408  23.7450000
 128.0119408 115.6129408  29.1090000 127.3469408 115.9979408  29.6800000
 127.5689408 115.4959408  28.2690000 137.2359408 115.8399408  24.2300000
 137.9919408 115.7569408  23.6490000 136.6439408 115.1399408  23.9550000
 136.3829408 115.0279408  16.5230000 135.9809408 114.9789408  15.6560000
 136.6939408 115.9299408  16.5930000 119.8979408 115.6919408  22.9550000
 119.7849408 114.8959408  23.4740000 120.8379408 115.7319408  22.7780000
 128.7329408 115.2859408   2.7840000 129.4529408 115.3559408   2.1580000
 128.2929408 116.1349408   2.7390000 146.7709408  93.6649408  22.7270000
 146.7729408  92.8369408  23.2070000 147.3549408  94.2339408  23.2270000
 125.4859408 107.0279408  25.4590000 125.3769408 106.1209408  25.7470000
 126.3439408 107.2849408  25.7970000 129.9189408  93.5539408  21.8240000
 129.1149408  93.4609408  22.3350000 130.5089408  92.8899408  22.1800000
 131.3379408 118.9519408  27.8980000 130.3879408 118.9459408  27.7800000
 131.6909408 118.7969408  27.0220000 128.4839408 102.6569408  12.7750000
 128.7579408 103.2109408  12.0450000 129.2489408 102.1129408  12.9640000
 124.8689408 112.0059408   4.4930000 125.4839408 112.3369408   3.8380000
 125.3879408 111.9349408   5.2950000 121.1839408 113.8679408   2.2820000
 121.7039408 113.3719408   1.6500000 121.6219408 113.7219408   3.1200000
 121.2759408 110.9209408  22.3260000 121.5259408 110.2529408  21.6880000
 121.9619408 111.5849408  22.2600000 127.4129408 116.2019408  20.0570000
 127.4249408 116.6489408  19.2110000 128.2419408 116.4469408  20.4690000
 132.1609408 111.0939408  27.1720000 131.3539408 111.5889408  27.0280000
 132.4389408 111.3399408  28.0540000 141.6459408 115.8579408  19.2480000
 141.8839408 115.4889408  18.3980000 141.1379408 115.1669408  19.6750000
 121.9099408 116.0429408  26.4380000 121.0299408 116.3809408  26.2760000
 121.8099408 115.4669408  27.1960000 146.5009408 113.4099408   3.8900000
 147.2679408 113.2959408   3.3290000 146.1529408 114.2679408   3.6490000
 132.1069408 118.3369408  22.1520000 132.8629408 118.3479408  22.7390000
 131.9139408 119.2609408  21.9920000 126.9049408 119.6589408  24.4020000
 127.4049408 119.1249408  25.0190000 127.5369408 119.8999408  23.7250000
 135.8789408  92.1039408  21.6990000 135.5149408  91.9559408  22.5720000
 136.7829408  91.7959408  21.7610000 128.8949408 111.6709408  19.8570000
 128.2309408 111.5909408  19.1720000 128.9859408 110.7849408  20.2080000
 139.3409408 109.3989408  20.3370000 139.0289408 109.1119408  19.4790000
 138.5439408 109.5879408  20.8320000 134.5349408  93.3569408  28.7370000
 134.1719408  92.4879408  28.5610000 135.0539408  93.5609408  27.9590000
 137.1019408 105.7249408  25.9070000 137.7749408 106.4049408  25.8650000
 136.2939408 106.1989408  26.1020000 133.0649408  91.5539408  20.0000000
 133.9649408  91.6039408  20.3230000 132.9399408  90.6309408  19.7800000
 130.1359408 112.0139408  23.1660000 130.2959408 112.4989408  22.3560000
 130.9959408 111.9489408  23.5810000 138.4869408  98.0279408   1.6070000
 139.1999408  98.3819408   2.1380000 138.0509408  98.7999408   1.2450000
 135.1319408 107.2609408  26.3960000 135.2409408 107.6919408  27.2440000
 134.5449408 106.5269408  26.5740000 127.2789408 116.4109408  26.2950000
 126.3539408 116.2849408  26.0820000 127.7199408 116.4259408  25.4460000
 134.4529408 110.9099408   3.7780000 134.3679408 110.7669408   2.8350000
 135.0229408 110.2019408   4.0770000 127.1399408 117.5469408  17.6840000
 126.8289408 117.2759408  16.8200000 126.5409408 118.2459408  17.9460000
 145.0939408  93.0129408  25.4040000 144.7599408  92.6939408  24.5660000
 145.6369408  92.2969408  25.7340000 135.7979408 118.7229408   3.2530000
 135.6619408 117.7969408   3.0530000 135.1299408 119.1799408   2.7420000
 129.0859408  91.1759408   1.1750000 128.4019408  90.5059408   1.1510000
 128.6729408  91.9539408   0.8020000 128.0329408 119.1679408  10.5370000
 128.6119408 118.8459408  11.2270000 127.5109408 119.8489408  10.9610000
 132.8329408 106.8609408  13.8650000 132.4649408 105.9809408  13.9370000
 132.1939408 107.3459408  13.3420000 128.4229408 118.5869408  27.7970000
 128.0969408 118.0029408  27.1120000 128.0209408 118.2599408  28.6020000
 133.1219408 105.2349408  26.3590000 132.9999408 104.2859408  26.3360000
 133.2029408 105.4879408  25.4390000 134.6709408  97.7959408   5.3550000
 135.3629408  97.6749408   4.7050000 134.3999408  96.9069408   5.5840000
 132.2429408  96.3459408   7.8770000 133.0639408  95.9189408   7.6340000
 131.5769408  95.9019408   7.3520000 130.7739408  96.2109408  29.9660000
 131.1209408  96.8889408  30.5450000 130.1539408  96.6719408  29.4000000
 144.9609408 105.1169408   6.4150000 144.0719408 105.3439408   6.1410000
 145.4919408 105.8699408   6.1570000 139.3769408  97.5459408  12.7920000
 139.5639408  97.9789408  11.9590000 138.9799408  98.2279408  13.3340000
 149.9389408 102.9329408  20.1570000 149.2409408 103.5489408  19.9330000
 149.5489408 102.0699408  20.0180000 143.4369408  98.0999408  14.6000000
 143.0629408  98.4679408  13.7990000 143.0709408  97.2169408  14.6520000
 147.4789408  93.9939408  10.6530000 147.3369408  94.2939408   9.7560000
 147.7139408  93.0699408  10.5640000 143.8419408  97.9109408  11.1330000
 143.2649408  98.4849408  10.6300000 144.5029408  97.6239408  10.5030000
 144.1399408  91.3499408  10.9420000 143.2239408  91.4689408  11.1920000
 144.1099408  90.7419408  10.2040000 142.8249408 111.8459408  29.9020000
 143.1099408 111.1609408  30.5080000 143.3979408 111.7459408  29.1420000
 120.0609408  96.7279408  17.5830000 120.7789408  97.3319408  17.7720000
 119.7179408  97.0209408  16.7390000 139.3879408 102.0239408   1.7080000
 138.4449408 102.1189408   1.5730000 139.5609408 101.0969408   1.5410000
 138.6229408  94.8899408  12.5080000 139.1929408  94.4829408  11.8550000
 138.9969408  95.7609408  12.6440000 148.2209408 113.3229408  14.8680000
 147.5639408 113.4529408  14.1850000 149.0359408 113.1649408  14.3900000
 147.7609408  92.7849408   3.9490000 148.2159408  92.0179408   3.6010000
 147.0409408  92.9349408   3.3370000 135.8699408  97.0169408   0.6600000
 135.2029408  96.8519408   1.3270000 136.4569408  97.6569408   1.0610000
 139.5339408 107.2399408  26.6460000 140.2919408 106.8729408  26.1910000
 139.5379408 106.8119408  27.5020000 145.9399408  95.4359408  14.7680000
 146.1589408  95.8389408  13.9280000 145.7629408  94.5199408  14.5560000
 145.4509408  96.9699408   5.4990000 144.8859408  96.2069408   5.3780000
 145.7639408  97.1789408   4.6180000 120.4629408 112.8909408  13.2580000
 120.2129408 111.9829408  13.0880000 121.3599408 112.8359408  13.5870000
 134.7979408 101.2589408  20.4950000 134.1209408 101.7319408  20.0110000
 135.3779408 101.9449408  20.8280000 138.4659408 113.8039408   9.1880000
 138.8379408 114.6159408   8.8460000 138.9149408 113.1109408   8.7040000
 136.7079408  97.0059408   3.8860000 137.1969408  97.5149408   3.2390000
 136.7849408  96.0999408   3.5860000 125.6159408  93.9159408  17.9620000
 126.1299408  93.4149408  18.5940000 125.1099408  93.2559408  17.4870000
 145.2969408  95.6169408  19.7390000 146.1719408  95.2819408  19.5430000
 144.9219408  95.8239408  18.8830000 130.5079408  97.1349408  20.9140000
 131.3479408  96.7929408  20.6060000 130.6289408  97.2549408  21.8560000
 125.4309408  98.9249408  13.3460000 124.5449408  98.8439408  13.6980000
 125.4069408  99.7229408  12.8170000 149.5329408  90.6999408   3.3760000
 150.1959408  90.7629408   2.6890000 149.1429408  89.8339408   3.2540000
 139.1209408 101.3209408  13.8360000 138.7309408 101.3989408  12.9650000
 138.7629408 102.0599408  14.3270000 143.4509408 106.6139408  17.9200000
 143.0099408 107.2459408  17.3520000 142.8429408 106.4799408  18.6470000
 121.2429408 115.3819408  11.0890000 121.8839408 114.7989408  10.6820000
 120.4409408 114.8619408  11.1370000 120.5589408  93.4369408   2.1060000
 120.9039408  93.9419408   1.3700000 119.6199408  93.3699408   1.9320000
 145.4529408 113.0009408   6.3470000 146.1639408 112.5919408   6.8410000
 145.8259408 113.1649408   5.4810000 139.8289408 102.1619408   4.8400000
 140.2879408 102.3219408   5.6640000 139.5549408 103.0299408   4.5450000
 138.0169408  97.0069408  27.2190000 137.3259408  96.5609408  27.7080000
 138.0999408  96.5049408  26.4080000 145.5609408 101.1319408  15.4750000
 145.1189408 100.5969408  16.1340000 144.8589408 101.6419408  15.0700000
 121.6959408 104.5629408   5.6540000 121.0739408 104.5129408   4.9270000
 121.7619408 103.6639408   5.9750000 146.7429408  93.6139408  17.8620000
 146.4659408  94.0829408  17.0750000 146.0469408  92.9769408  18.0200000
 141.6259408 109.4869408   1.2030000 142.4039408 109.0829408   1.5860000
 141.3859408 110.1789408   1.8190000 139.8959408  97.7829408  29.2340000
 139.4559408  97.5179408  28.4260000 139.2739408  97.5689408  29.9280000
 149.2179408 113.7659408   5.8380000 149.3659408 114.3189408   5.0710000
 149.4309408 112.8809408   5.5410000 141.2669408  90.7559408   8.5830000
 141.3999408  91.0999408   9.4660000 140.5919408  90.0849408   8.6870000
 144.1839408  94.4299408  29.2750000 143.9199408  95.0219408  28.5710000
 143.4349408  94.4179408  29.8720000 147.0209408  90.6149408  23.3560000
 146.1119408  90.3729408  23.1770000 147.4589408  89.7839408  23.5400000
 147.0549408 110.3509408  13.5330000 146.2059408 110.0659408  13.1960000
 147.4329408 109.5649408  13.9270000 143.3629408  95.0449408  11.8150000
 143.7649408  95.8809408  11.5770000 144.1039408  94.4649408  11.9930000
 144.9759408  91.0289408  20.1130000 144.6729408  91.3969408  19.2830000
 144.4759408  91.4979408  20.7810000 142.5319408 113.9129408  16.2690000
 143.3199408 113.8259408  16.8050000 142.8589408 114.0669408  15.3830000
 146.3219408  97.4929408  23.9420000 146.3019408  96.7529408  24.5480000
 147.1049408  97.9849408  24.1900000 120.1739408 101.8329408  11.6060000
 120.4409408 101.6049408  12.4960000 120.8999408 102.3529408  11.2630000
 145.7369408 109.1459408   8.1800000 144.8499408 109.1279408   8.5390000
 146.1869408 108.4239408   8.6170000 136.6539408  99.5689408   7.1000000
 136.2859408  99.1019408   6.3490000 137.5579408  99.2609408   7.1550000
 138.3429408 115.7469408   6.0430000 138.8659408 114.9999408   5.7510000
 137.5969408 115.7659408   5.4440000 124.7929408 115.8129408   5.2480000
 124.3529408 116.6369408   5.4600000 124.0799408 115.1949408   5.0880000
 143.2419408 113.1659408  10.4920000 142.9709408 113.7249408   9.7630000
 142.5509408 112.5069408  10.5570000 145.7379408 116.5139408  16.0000000
 145.5399408 115.6189408  15.7260000 144.8859408 116.8929408  16.2160000
 120.0309408  96.3349408   7.2890000 119.4529408  95.8939408   6.6650000
 120.7089408  96.7369408   6.7450000 125.4109408  91.6389408  14.1010000
 126.3529408  91.5459408  13.9540000 125.1199408  92.2449408  13.4200000
 140.9789408 101.3509408  28.1040000 141.4849408 100.7389408  28.6380000
 141.4719408 101.4199408  27.2860000 132.0409408  93.7889408   0.3090000
 131.4489408  94.5119408   0.1020000 132.7159408  93.8299408  -0.3690000
 144.4599408  92.0869408  17.5660000 144.6979408  92.1839408  16.6440000
 143.9199408  91.2969408  17.5930000 128.5499408  94.3989408  19.4280000
 129.1569408  94.0959408  20.1040000 127.8149408  93.7869408  19.4750000
 147.6739408  97.2299408  28.4930000 148.1929408  98.0039408  28.2730000
 147.5139408  96.7999408  27.6530000 141.2339408  91.7299408  11.0500000
 141.0569408  91.7479408  11.9900000 141.0979408  92.6329408  10.7630000
 142.1169408  96.2239408  16.4610000 141.5759408  96.8179408  16.9810000
 141.6809408  96.1839408  15.6100000 137.0459408  99.7769408  30.0950000
 136.9329408 100.7139408  30.2500000 137.3599408  99.7189408  29.1920000
 147.9949408  91.5439408   9.2960000 147.6689408  90.7739408   9.7610000
 147.5859408  91.4939408   8.4320000 124.1849408 109.2609408  15.5620000
 123.2749408 109.4589408  15.3410000 124.2369408 109.3929408  16.5080000
 141.5719408 106.0879408  19.4610000 141.2589408 106.5549408  20.2350000
 142.0279408 105.3219408  19.8100000 144.5889408 102.8039408  18.0590000
 145.3309408 102.2919408  17.7360000 144.9889408 103.5189408  18.5550000
 149.8669408 112.4849408  23.7190000 150.5199408 112.0109408  23.2050000
 149.1229408 112.5889408  23.1250000 142.9719408 119.7709408   6.6800000
 142.3179408 120.1079408   7.2920000 143.6439408 119.3789408   7.2390000
 132.1399408  97.4559408  12.2220000 133.0799408  97.4309408  12.0430000
 131.9669408  96.6499408  12.7080000 142.2569408 102.3619408  11.4830000
 141.7519408 103.1539408  11.2990000 142.2079408 101.8529408  10.6740000
 147.9939408  98.9349408  18.7130000 148.8849408  98.7869408  19.0320000
 147.4419408  98.4079408  19.2910000 145.9349408 111.0989408  28.9360000
 145.4299408 111.0179408  28.1280000 146.4369408 111.9069408  28.8260000
 122.6369408  98.9269408   8.6340000 123.0599408  99.1289408   9.4690000
 121.7709408  99.3279408   8.7010000 121.9669408  98.2519408  18.4270000
 122.8179408  98.6559408  18.5950000 121.4089408  98.5619408  19.1400000
 147.5039408  95.9579408  12.6760000 147.6349408  95.1329408  12.2080000
 147.4329408  96.6169408  11.9850000 126.0659408  93.5049408   3.3350000
 125.7129408  94.3689408   3.5490000 125.3759408  93.0859408   2.8200000
 140.1629408  93.2489408   7.1740000 140.7889408  92.6829408   7.6270000
 139.4289408  93.3299408   7.7820000 136.8479408 119.6619408  10.6200000
 136.3209408 119.0759408  11.1630000 136.2789408 119.8849408   9.8840000
 125.8869408 100.2809408   5.3640000 125.6359408 100.8369408   6.1020000
 125.8729408 100.8659408   4.6070000 142.0509408 117.8479408  21.3780000
 142.2919408 117.3129408  20.6220000 142.4079408 118.7149408  21.1820000
 146.0049408 118.4509408  20.5770000 145.3879408 117.8689408  20.1320000
 145.6789408 119.3319408  20.3920000 135.9519408 105.9449408   0.6750000
 135.0699408 105.6069408   0.8280000 136.3909408 105.2529408   0.1800000
 142.1649408  97.7679408   8.6350000 143.0789408  97.4839408   8.6030000
 142.1279408  98.5239408   8.0490000 144.3869408 100.8979408   7.2380000
 144.6949408 101.3449408   8.0260000 145.0989408 101.0059408   6.6070000
 140.4669408 117.5979408  16.5020000 140.0149408 118.4079408  16.7400000
 139.9129408 116.9009408  16.8520000 137.1799408 114.4859408  11.5940000
 137.1339408 114.0919408  10.7230000 137.8769408 115.1389408  11.5260000
 147.1109408  97.9229408  10.7590000 146.6699408  98.6599408  11.1820000
 147.2859408  98.2279408   9.8680000 144.4309408  98.2329408   0.1660000
 144.9999408  98.8329408  -0.3160000 144.9499408  97.9689408   0.9260000
 147.6649408 107.8339408  20.4340000 147.0099408 107.9209408  21.1270000
 147.7929408 108.7259408  20.1110000 140.4459408  95.7249408   5.9510000
 140.6899408  94.9389408   6.4390000 141.2809408  96.0999408   5.6680000
 124.0989408 107.2339408  20.9040000 123.5579408 107.6299408  20.2210000
 124.7849408 107.8809408  21.0720000 143.0409408 115.6989408   7.7480000
 142.2169408 116.1149408   7.4950000 143.0589408 114.8799408   7.2530000
 135.0709408  93.1099408  11.9730000 135.9309408  92.7019408  11.8700000
 134.5769408  92.4959408  12.5170000 121.2549408  96.8109408  14.1630000
 120.3669408  96.7379408  14.5100000 121.5479408  97.6809408  14.4330000
 121.2039408 108.3319408   8.1590000 121.7869408 108.4599408   8.9080000
 120.4139408 107.9419408   8.5330000 130.8509408 108.0429408  20.5640000
 131.5169408 107.8769408  19.8970000 130.6929408 107.1879408  20.9640000
 145.3289408 103.5029408  11.5810000 145.0329408 104.2309408  12.1270000
 146.1189408 103.1829408  12.0170000 147.1119408 117.8559408  14.3000000
 146.6299408 117.3489408  14.9530000 148.0099408 117.8809408  14.6300000
 144.7879408  92.1149408   5.8990000 144.1839408  91.3719408   5.9120000
 145.6579408  91.7159408   5.9040000 139.4179408 105.1679408  16.0930000
 140.2329408 104.6729408  16.0060000 139.6999408 106.0539408  16.3210000
 147.7659408 103.5989408   3.8470000 147.7389408 103.8419408   4.7720000
 147.9009408 104.4269408   3.3850000 125.1689408 104.5189408  16.3780000
 125.8409408 104.4369408  17.0540000 124.4199408 104.9079408  16.8290000
 142.8469408 104.3839408  29.2860000 143.0729408 105.2939408  29.4810000
 142.3399408 104.4319408  28.4760000 144.5049408  93.7859408   8.3370000
 144.6659408  93.1259408   7.6630000 145.3689408  93.9629408   8.7110000
 147.8919408 105.9599408   1.8140000 147.0629408 105.4949408   1.6950000
 148.2699408 106.0039408   0.9360000 141.4209408  95.9589408  13.7260000
 140.7449408  96.4539408  13.2630000 142.0389408  95.6999408  13.0420000
 124.4059408 100.8699408   1.0480000 123.6999408 101.4429408   1.3470000
 125.1239408 101.0339408   1.6600000 137.9489408 107.1749408  11.2960000
 137.9059408 106.2389408  11.0990000 138.8179408 107.2979408  11.6800000
 145.4809408 101.9639408   9.4060000 145.1199408 102.5119408  10.1030000
 146.2799408 101.5939408   9.7810000 147.2379408  94.9699408   8.0610000
 147.3909408  95.8909408   8.2740000 147.5609408  94.8749408   7.1650000
 144.1389408  98.9709408  24.3760000 143.4629408  98.4299408  23.9690000
 144.9209408  98.4189408  24.3760000 136.7859408 108.4209408   1.6810000
 136.7219408 107.5299408   1.3370000 137.4129408 108.8559408   1.1040000
 142.8489408 103.5719408  19.9600000 143.5609408 103.2709408  19.3950000
 142.1069408 103.0129408  19.7290000 143.2589408  90.4689408  14.2250000
 143.7039408  89.7619408  13.7580000 143.9489408  91.1049408  14.4120000
 120.9149408 102.1979408   3.5130000 120.7669408 102.8599408   2.8380000
 120.2449408 101.5339408   3.3490000 136.2619408  95.6629408  11.8050000
 137.1559408  95.3529408  11.9450000 135.7269408  94.8699408  11.8260000
 145.2609408  92.5219408  15.1500000 146.1599408  92.1979408  15.2140000
 145.1129408  92.6349408  14.2110000 146.0369408  99.7699408  12.4210000
 146.3529408  99.1019408  13.0300000 145.0999408  99.8379408  12.6050000
 143.0209408  98.4339408   3.5050000 143.2149408  99.3699408   3.4500000
 143.4379408  98.1499408   4.3190000 138.3969408  91.7669408   4.5070000
 138.1719408  91.0319408   5.0770000 139.3529408  91.8069408   4.5340000
 147.9889408  99.2129408  25.4190000 148.5799408  99.2639408  26.1700000
 147.4759408 100.0199408  25.4620000 149.4079408 110.4649408  12.4830000
 148.5159408 110.4729408  12.8300000 149.2959408 110.4509408  11.5330000
 139.9099408  98.3669408  10.0660000 139.9099408  99.2509408   9.6990000
 140.6139408  97.9149408   9.6030000 142.6919408 101.3699408  26.1520000
 142.7639408 100.5559408  25.6530000 143.5839408 101.5479408  26.4510000
 142.3429408 107.8229408  13.7280000 142.4789408 108.5569408  14.3260000
 141.4959408 107.9999408  13.3180000 138.5539408 108.9259408  24.6820000
 138.7939408 108.2999408  25.3660000 139.3529408 109.4279408  24.5250000
 120.9789408 101.7839408   6.4660000 120.8059408 101.5689408   5.5490000
 120.8379408 100.9619408   6.9360000 138.5449408  96.2349408   8.9460000
 138.6869408  96.3049408   8.0020000 138.8589408  97.0669408   9.2990000
 137.5829408  92.1169408  11.6990000 137.5359408  91.9249408  12.6360000
 137.4419408  91.2719408  11.2740000 143.0879408  96.0449408   2.2860000
 143.1179408  96.9629408   2.5550000 142.5769408  96.0479408   1.4770000
 139.4299408 119.0179408   0.8690000 140.3869408 119.0099408   0.8630000
 139.1899408 118.4979408   1.6360000 143.0929408  94.5809408  26.6170000
 143.7929408  94.1529408  26.1250000 142.4559408  94.8409408  25.9520000
 149.4029408 111.3029408  16.8030000 149.1189408 112.1149408  16.3830000
 150.2919408 111.4879408  17.1050000 127.9229408  90.9289408   7.0610000
 128.3859408  91.4039408   7.7510000 127.6119408  91.6119408   6.4670000
 146.0629408  96.2019408   2.8730000 146.7759408  96.4759408   2.2960000
 145.4759408  95.7009408   2.3070000 145.4119408 110.8149408   1.5320000
 145.4999408 110.9999408   0.5970000 146.2239408 110.3649408   1.7650000
 148.3659408  95.4669408  19.3010000 148.8039408  95.9929408  18.6320000
 148.0599408  94.6899408  18.8330000 133.7059408  90.8079408  28.7940000
 132.8089408  90.6749408  29.0990000 134.2449408  90.6919408  29.5770000
 140.9419408  94.3839408  17.7550000 140.5819408  93.9059408  17.0080000
 141.5239408  95.0359408  17.3640000 139.5519408 103.4549408  29.3200000
 139.6209408 102.9329408  30.1200000 139.9389408 102.9039408  28.6400000
 149.4049408  99.7769408   1.2160000 149.7829408  99.6169408   0.3520000
 148.8879408  98.9919408   1.4010000 143.8139408 106.7889408  29.7140000
 143.7769408 107.3819408  30.4640000 144.6549408 106.9789408  29.2980000
 141.4199408 103.2069408  24.2540000 141.6209408 102.3409408  24.6100000
 141.2789408 103.0559408  23.3200000 144.3839408 106.4509408  26.5200000
 144.4989408 107.3369408  26.1780000 144.0379408 106.5779408  27.4040000
 149.1759408 100.3779408  22.4850000 148.2839408 100.5879408  22.2080000
 149.0939408 100.1619408  23.4140000 147.5159408 101.6489408  18.8270000
 147.5849408 100.6959408  18.7670000 147.6049408 101.8379408  19.7610000
 148.1189408 103.0759408  23.9840000 148.7619408 102.6759408  24.5710000
 147.4529408 103.4369408  24.5690000 144.1129408  91.7349408  28.1150000
 144.7809408  91.4299408  27.5010000 144.4059408  92.6089408  28.3730000
 141.7639408 103.3609408   2.3840000 141.7739408 103.7069408   1.4920000
 140.9559408 102.8499408   2.4340000 148.0309408 115.7699408   0.2010000
 147.6519408 116.3839408  -0.4290000 148.7909408 116.2309408   0.5560000
 141.1939408  94.9999408  24.4080000 140.3499408  95.2639408  24.7730000
 141.2559408  94.0639408  24.5980000 146.5439408  95.5789408  25.9390000
 145.8209408  94.9659408  25.8060000 147.3229408  95.0939408  25.6660000
 148.7599408 118.1839408   3.0480000 148.8759408 117.2849408   3.3560000
 149.4779408 118.3219408   2.4310000 142.4329408 114.4709408   0.8190000
 141.6569408 114.3989408   1.3750000 142.5059408 113.6149408   0.3970000
 147.0089408  97.7539408  20.9100000 147.1639408  97.5669408  21.8360000
 146.1749408  97.3249408  20.7160000 123.2349408 108.6979408  24.7910000
 122.6099408 107.9739408  24.8150000 124.0829408 108.2909408  24.9680000
 125.1829408 105.2449408  28.7310000 125.2499408 104.6459408  27.9880000
 126.0909408 105.4169408  28.9820000 139.5569408 109.2589408   4.7920000
 139.8279408 108.5009408   4.2750000 139.5719408 109.9889408   4.1730000
 146.9399408 100.5709408   5.5480000 147.2969408 101.4359408   5.7460000
 147.5429408 100.2049408   4.9000000 142.1869408  97.3489408  23.2340000
 142.6329408  97.2299408  22.3960000 141.9849408  96.4599408  23.5270000
 143.0549408 116.8219408  15.9560000 142.1179408 116.8199408  16.1500000
 143.1779408 116.0819408  15.3610000 146.0829408 104.9759408  22.9120000
 146.8299408 104.5689408  22.4730000 146.1679408 104.7089408  23.8270000
 121.7139408  94.7479408   4.2270000 121.3929408  94.3309408   3.4270000
 121.0859408  94.4889408   4.9010000 146.7119408 118.8939408   1.2240000
 147.5319408 118.5429408   1.5710000 146.3319408 119.3829408   1.9540000
 144.2559408 113.5429408  18.3680000 144.2759408 112.7569408  18.9150000
 145.1489408 113.6239408  18.0320000 147.4089408 118.0439408  28.3580000
 146.8659408 118.5749408  28.9420000 148.0689408 118.6529408  28.0260000
 126.1619408 111.5309408  25.3790000 126.6229408 112.3089408  25.0660000
 126.8009408 110.8229408  25.2930000 144.1759408 108.5089408   1.7660000
 144.5339408 109.3739408   1.5650000 144.8279408 108.1069408   2.3410000
 145.2449408 105.1359408  19.2390000 144.6809408 105.3399408  19.9860000
 145.0279408 105.8009408  18.5860000 147.8889408  92.9389408   0.7890000
 147.1389408  92.3659408   0.9500000 147.5709408  93.8159408   1.0000000
 137.5889408  95.9449408  21.8650000 137.9269408  95.0509408  21.9150000
 138.2399408  96.4199408  21.3480000 138.6329408  93.7929408  27.6990000
 139.4459408  93.2949408  27.6140000 138.5859408  94.0199408  28.6280000
 140.0679408  96.6019408  20.6770000 140.4109408  95.7399408  20.4420000
 140.8469408  97.1369408  20.8290000 149.4139408  93.1659408  16.0720000
 149.2369408  92.3849408  16.5970000 148.9069408  93.8589408  16.4960000
 146.1419408 102.3979408  27.6270000 145.4329408 102.2329408  28.2480000
 146.9029408 102.5879408  28.1750000 137.8799408  97.6249408  24.1220000
 137.7579408  96.6759408  24.0920000 137.0159408  97.9709408  24.3480000
 141.5639408 105.6829408  25.4200000 142.2419408 105.5029408  26.0710000
 141.3869408 104.8329408  25.0160000 149.8499408  92.5939408  28.7080000
 149.3119408  92.9239408  29.4270000 149.7199408  93.2259408  28.0010000
 144.0009408  94.7069408   5.0710000 143.8849408  94.5229408   4.1390000
 144.2479408  93.8649408   5.4530000 148.6979408  94.9809408  23.9730000
 149.2289408  95.6649408  24.3820000 149.2709408  94.2149408  23.9480000
 129.8899408 101.8059408  17.1790000 130.2009408 101.2239408  17.8720000
 130.1229408 101.3559408  16.3660000 140.1359408 106.2199408  28.9780000
 139.9219408 105.3049408  28.7990000 140.5769408 106.2019408  29.8280000
 140.0029408  99.2039408  23.4090000 140.8009408  98.6759408  23.4560000
 139.3039408  98.6049408  23.6730000 143.6059408 102.7209408  14.1930000
 143.3069408 102.6279408  13.2890000 143.8659408 103.6389408  14.2670000
 141.9269408 108.4589408  27.4240000 141.6859408 109.2179408  27.9550000
 141.2059408 107.8409408  27.5460000 140.6599408 110.6539408  28.5530000
 140.8069408 110.9329408  29.4560000 140.5649408 111.4699408  28.0610000
 143.0969408  97.0939408  20.7320000 143.5719408  97.7899408  20.2780000
 143.5829408  96.2959408  20.5220000 141.2829408  94.2129408  10.2370000
 142.1709408  94.4309408  10.5200000 140.9569408  95.0169408   9.8310000
 125.2779408 101.5559408   7.5480000 124.8449408 100.9229408   8.1220000
 125.5749408 102.2489408   8.1370000 126.0519408  96.0389408  12.9900000
 126.7619408  95.9259408  12.3580000 125.9799408  96.9859408  13.1040000
 145.8779408 104.2189408  25.3820000 145.9199408 103.5969408  26.1090000
 145.3539408 104.9449408  25.7190000 146.9689408 116.1229408  22.1750000
 147.8909408 116.2139408  22.4190000 146.8059408 116.8519408  21.5770000
 120.5089408  99.7659408  13.8980000 119.8269408  99.7809408  14.5700000
 120.2249408  99.0889408  13.2830000 142.0069408 103.9469408  16.1180000
 142.6479408 103.3789408  15.6900000 142.4899408 104.3509408  16.8390000
 141.3509408 113.5839408  27.1550000 142.0519408 114.1379408  26.8110000
 140.8199408 114.1729408  27.6900000 123.1369408 105.9089408  17.4420000
 123.2879408 106.7359408  17.8990000 122.3239408 106.0479408  16.9560000
 144.1139408  93.7159408  21.1230000 144.5879408  94.4759408  20.7840000
 144.5419408  93.5189408  21.9560000 133.7419408  96.4529408  15.6390000
 134.2449408  96.8479408  14.9270000 133.4279408  97.1979408  16.1520000
 148.1879408 102.5169408  29.3490000 149.0379408 102.9559408  29.3450000
 148.2049408 101.9679408  30.1330000 139.3529408  99.0949408  19.9650000
 138.9699408  99.8979408  20.3180000 139.1119408  98.4159408  20.5960000
 137.2159408  92.2419408  14.2630000 137.4569408  91.6839408  15.0030000
 136.9959408  93.0849408  14.6600000 147.4739408  98.2959408   7.3770000
 147.0789408  99.0559408   6.9490000 147.4529408  97.6089408   6.7110000
 124.6389408  98.2059408   0.3610000 124.5499408  99.1419408   0.5400000
 125.5799408  98.0399408   0.4160000 123.5789408  95.2939408  14.7230000
 124.2869408  95.7469408  14.2640000 122.8469408  95.9109408  14.7040000
 134.3679408  98.5949408  20.4910000 134.4269408  99.5469408  20.5680000
 134.3979408  98.4279408  19.5490000 122.4339408 119.4479408  21.3220000
 121.7669408 118.7629408  21.3040000 122.1439408 120.0829408  20.6670000
 139.6399408 107.0629408  21.6660000 140.2749408 107.2579408  22.3550000
 139.4069408 107.9179408  21.3040000 147.1349408 102.3819408  21.4320000
 146.3539408 101.8949408  21.6950000 147.7049408 102.3559408  22.2000000
 123.7859408  93.1389408   5.5410000 124.7399408  93.2159408   5.5740000
 123.5029408  93.8839408   5.0110000 142.3099408 100.3559408  21.7640000
 141.7209408 101.1059408  21.6740000 141.7629408  99.6659408  22.1410000
 148.6129408 110.5529408  20.3810000 149.2029408 110.8629408  21.0670000
 148.5069408 111.3039408  19.7970000 138.5159408 115.7009408   0.7170000
 138.6129408 116.6029408   1.0230000 139.1969408 115.5999408   0.0510000
 144.3199408 105.3179408  13.4330000 143.7379408 106.0469408  13.2200000
 144.8819408 105.6559408  14.1310000 142.5469408 105.5769408   4.2880000
 141.8889408 106.0879408   3.8160000 142.4899408 104.7009408   3.9070000
 139.5539408  90.0589408  17.2370000 139.8519408  90.3489408  16.3750000
 138.6799408  90.4369408  17.3290000 144.5779408 116.1839408  19.7680000
 145.3119408 115.7339408  19.3490000 143.8019408 115.8429408  19.3220000
 141.9709408 119.7309408   4.2900000 141.4919408 120.5529408   4.3860000
 142.2929408 119.5359408   5.1700000 139.7779408 113.9979408  13.5600000
 140.2779408 114.1409408  12.7560000 140.3799408 113.5269408  14.1360000
 136.2369408  92.5929408   7.0360000 136.4979408  91.7169408   6.7530000
 137.0569408  93.0199408   7.2820000 137.8549408  93.6489408   8.8230000
 138.0219408  94.5789408   8.9790000 137.6949408  93.2839408   9.6930000
 140.3289408 114.1079408   2.8240000 139.6049408 114.5969408   2.4350000
 140.2499408 114.2699408   3.7640000 141.6989408  90.0119408  19.4060000
 142.3109408  89.7979408  18.7010000 140.9559408  90.4209408  18.9620000
 147.1489408 111.4149408   8.1260000 147.0169408 111.9989408   8.8730000
 146.3659408 110.8649408   8.1090000 141.1139408  92.1109408   4.7390000
 141.1109408  92.6599408   5.5240000 141.5609408  92.6399408   4.0780000
 142.0079408 100.1399408  16.2200000 141.9829408 100.3189408  15.2790000
 142.8879408  99.7949408  16.3750000 136.6089408 108.0909408  13.3550000
 136.7289408 107.5009408  12.6110000 137.4469408 108.5439408  13.4390000
 147.8639408 107.4319408   9.3610000 147.7469408 107.2979408  10.3010000
 148.3079408 108.2779408   9.2930000 121.0329408 115.6039408  13.9710000
 120.2089408 115.2399408  14.2930000 121.2309408 115.0919408  13.1870000
 121.9339408 119.6879408  18.6420000 122.2469408 118.7839408  18.6550000
 121.5109408 119.7829408  17.7880000 121.1559408 108.4609408  20.0400000
 120.2709408 108.7809408  19.8660000 121.0349408 107.5459408  20.2950000
 122.0799408 118.3339408   3.5080000 121.6479408 118.7749408   2.7770000
 122.4669408 119.0439408   4.0210000 137.4589408 109.6149408   6.9330000
 136.5709408 109.2699408   7.0270000 137.7209408 109.3639408   6.0470000
 145.5019408 115.3549408  28.7860000 146.3499408 114.9159408  28.7100000
 145.0439408 115.1329408  27.9750000 146.6749408 107.5639408  13.5590000
 146.2789408 107.7839408  14.4030000 146.8119408 106.6169408  13.5990000
 139.9319408 113.5469408   5.4520000 139.4589408 112.7149408   5.4690000
 140.8459408 113.3059408   5.6030000 143.0439408 111.6259408  13.4910000
 142.5689408 111.6099408  12.6600000 143.9519408 111.4399408  13.2520000
 141.5259408 117.0239408   3.9340000 141.8329408 116.7029408   3.0860000
 141.8009408 117.9409408   3.9570000 142.5659408 113.1829408   6.2490000
 142.5139408 112.3989408   6.7960000 143.4839408 113.2299408   5.9820000
 122.7359408 113.2419408  21.7040000 122.8889408 113.6109408  20.8350000
 122.5469408 113.9999408  22.2570000 145.2289408  93.2469408  12.4100000
 144.8559408  92.6399408  11.7710000 146.0849408  93.4789408  12.0500000
 123.0529408 116.7679408  15.5720000 122.4119408 116.2939408  15.0430000
 123.1159408 117.6289408  15.1590000 144.1119408 111.8259408   3.7350000
 144.7569408 112.4489408   4.0690000 144.4369408 111.5849408   2.8680000
 145.3229408 106.5199408   3.7300000 145.4299408 105.8639408   3.0410000
 144.4889408 106.2979408   4.1450000 121.2079408 114.3789408  28.9760000
 120.7519408 113.5889408  29.2650000 122.1189408 114.1049408  28.8680000
 145.6729408 110.8899408  23.2500000 145.9379408 111.6929408  22.8020000
 145.0279408 110.4909408  22.6670000 148.0719408 105.0429408  14.1250000
 148.3279408 104.1539408  13.8810000 148.7059408 105.6059408  13.6790000
 141.4969408 107.6769408   8.9910000 140.6869408 107.9649408   9.4120000
 141.2069408 107.1699408   8.2330000 141.3089408 111.2979408  10.9070000
 140.3719408 111.3809408  11.0840000 141.3559408 110.9219408  10.0280000
 139.9409408 115.9629408  28.3800000 139.0549408 116.3189408  28.3170000
 140.3819408 116.2749408  27.5900000 142.7679408 109.3119408  17.3790000
 142.3009408 110.0629408  17.0110000 143.4259408 109.6989408  17.9570000
 139.7129408 111.5399408   7.5910000 139.1179408 110.8719408   7.2500000
 140.5109408 111.0599408   7.8100000 143.7039408 107.7479408  10.5130000
 144.1529408 106.9339408  10.2860000 142.9529408 107.7799408   9.9200000
 147.4709408 115.8359408   6.5070000 147.7579408 114.9329408   6.6370000
 147.3959408 115.9299408   5.5570000 147.1539408 115.2229408  18.8610000
 147.2309408 114.5909408  18.1470000 147.9429408 115.7599408  18.7930000
 148.9979408 105.2499408  17.3840000 148.6679408 105.0439408  18.2580000
 148.5579408 104.6249408  16.8080000 137.0249408 112.7099408  17.6690000
 136.8809408 112.0149408  17.0260000 136.7759408 113.5139408  17.2140000
 145.5159408  92.1409408   2.2740000 144.6969408  92.6339408   2.2290000
 145.2789408  91.3189408   2.7030000 147.8379408 106.4779408   4.9610000
 147.1649408 106.4449408   4.2810000 148.2269408 107.3489408   4.8720000
 138.1619408 101.4479408  18.1310000 138.1129408 101.6889408  19.0560000
 139.0279408 101.7449408  17.8520000 131.7949408  94.1809408  15.4660000
 131.0579408  94.3869408  16.0420000 132.4969408  94.7619408  15.7580000
 144.6279408 119.7129408   3.2650000 143.6809408 119.5999408   3.3410000
 144.9819408 119.3039408   4.0550000 144.1549408 118.4689408   8.6710000
 144.9869408 117.9959408   8.6860000 143.5239408 117.8559408   9.0480000
 147.6299408 118.3429408   7.5860000 147.5669408 117.3909408   7.5050000
 147.5549408 118.5079408   8.5260000 146.7179408 113.2369408  17.1170000
 147.0469408 113.5299408  16.2670000 146.4409408 112.3329408  16.9690000
 148.6429408 113.4169408   2.1320000 149.5469408 113.7219408   2.2000000
 148.2299408 114.0239408   1.5180000 138.1019408 119.3339408  13.8490000
 138.8249408 119.9569408  13.9170000 138.5209408 118.5029408  13.6270000
 120.8829408 105.8929408  20.9960000 121.0199408 105.6469408  21.9110000
 120.0429408 105.4959408  20.7640000 149.7119408 117.0349408  18.1520000
 149.5509408 117.4989408  17.3300000 149.2639408 117.5589408  18.8150000
 127.1339408 113.6299408  17.5170000 126.9599408 114.4419408  17.0430000
 127.4829408 113.0339408  16.8540000 124.8129408 110.6049408  20.3340000
 124.8989408 111.5329408  20.5520000 124.8869408 110.1529408  21.1740000
 145.3029408 116.0099408  11.7730000 145.0519408 115.5969408  10.9470000
 144.6769408 116.7259408  11.8830000 135.4609408 113.4619408   3.0360000
 135.9439408 113.2799408   2.2300000 135.3659408 112.6069408   3.4560000
 133.5109408 117.9189408  15.3630000 134.4469408 117.8499408  15.5500000
 133.2639408 117.0499408  15.0470000 145.1669408 115.1589408   1.8110000
 144.2559408 114.8679408   1.8270000 145.3879408 115.2049408   0.8810000
 141.1539408 117.1659408   6.5480000 141.4189408 116.9389408   5.6570000
 141.5359408 118.0299408   6.7000000 137.0539408 116.8609408  28.2050000
 136.3929408 117.1089408  28.8510000 136.5519408 116.4939408  27.4770000
 136.0469408  94.5639408  15.7710000 136.0809408  94.5099408  16.7260000
 135.4529408  95.2939408  15.5940000 122.8799408 117.4629408  12.2670000
 122.0239408 117.0379408  12.2150000 123.2679408 117.3299408  11.4030000
 148.6919408 109.2009408   3.8620000 149.5599408 108.8229408   3.7170000
 148.1619408 108.8679408   3.1380000 147.3199408 108.8899408   1.5420000
 147.8129408 109.1749408   0.7720000 147.3469408 107.9339408   1.5040000
 120.1709408 115.8719408   3.6420000 120.6029408 115.3299408   2.9810000
 120.8439408 116.4929408   3.9200000 141.9069408 110.2649408   8.2860000
 141.7919408 109.3209408   8.3890000 142.4119408 110.3589408   7.4790000
 140.8209408 115.7819408  11.5460000 140.6039408 115.9449408  10.6280000
 140.7959408 116.6459408  11.9560000 147.3569408  91.1799408   6.2670000
 147.6309408  91.6629408   5.4870000 148.0139408  90.4909408   6.3660000
 138.4929408 110.8929408  11.3400000 138.2899408 110.2629408  10.6490000
 137.8709408 111.6069408  11.2050000 147.5929408 118.9229408  10.4380000
 147.4519408 119.3709408  11.2720000 148.5019408 118.6269408  10.4740000
 129.8979408 118.3239408  17.5680000 130.5479408 117.6229408  17.5210000
 129.0609408 117.8869408  17.4100000 120.6229408 115.0849408  19.8260000
 121.5509408 114.8679408  19.9130000 120.5909408 115.7159408  19.1080000
 132.2699408 106.4249408  28.7760000 132.9509408 107.0969408  28.8060000
 132.4539408 105.9319408  27.9760000 149.5049408  99.6089408   3.9390000
 149.2369408  99.4409408   3.0360000 150.3389408  99.1489408   4.0320000
 144.9399408 118.5519408  12.8940000 145.6679408 118.0659408  13.2810000
 145.3499408 119.3119408  12.4820000 146.2609408 110.5759408  16.5330000
 145.9599408 109.7359408  16.1870000 147.1519408 110.4039408  16.8380000
 120.9209408 119.9589408   9.9480000 121.4189408 119.3979408   9.3520000
 120.0779408 120.0829408   9.5120000 120.1289408  90.2789408   6.1440000
 120.1339408  90.2069408   5.1890000 120.6739408  89.5509408   6.4420000
 140.1059408 116.3139408   8.9570000 140.3829408 116.3689408   8.0430000
 139.8789408 117.2129408   9.1940000 143.6379408 119.1839408  27.3740000
 143.8629408 118.6559408  28.1400000 143.7149408 120.0889408  27.6760000
 137.8029408  91.4979408   2.0150000 137.8179408  91.3079408   2.9530000
 137.9959408  90.6579408   1.5970000 141.2849408 111.4409408   3.2030000
 142.1909408 111.6019408   3.4660000 140.9289408 112.3109408   3.0260000
 144.8339408 108.1349408  15.5300000 145.1179408 107.2749408  15.8380000
 144.2629408 108.4619408  16.2250000 145.9399408 113.0769408  10.1740000
 145.0409408 112.8989408  10.4490000 145.8779408 113.8789408   9.6550000
 120.5509408 113.0329408   8.3860000 120.1859408 113.4379408   7.6000000
 119.8569408 113.1109408   9.0410000 141.0919408  92.8469408  27.7180000
 141.6289408  92.2659408  28.2570000 141.7059408  93.5029408  27.3870000
 139.0939408 115.2559408  17.6310000 138.8449408 115.5209408  18.5160000
 138.5189408 114.5169408  17.4310000 144.6889408 116.4959408  23.9890000
 145.4609408 116.4079408  23.4300000 144.0209408 115.9579408  23.5630000
 139.7889408 117.3129408  23.2930000 140.5389408 117.1429408  22.7230000
 139.6029408 118.2449408  23.1720000 146.0789408 118.6559408   5.3270000
 146.5179408 118.9459408   6.1270000 146.5309408 117.8469408   5.0860000
 141.9989408 117.5469408   1.0180000 142.9239408 117.6119408   0.7810000
 141.7279408 116.6889408   0.6910000 137.6129408 110.7449408   3.2240000
 137.4149408 109.8939408   2.8320000 137.7729408 111.3209408   2.4770000
 148.7029408 113.2359408  20.3090000 149.5569408 113.6369408  20.1500000
 148.0819408 113.8059408  19.8540000 139.1839408 112.3919408  19.3730000
 138.8759408 112.0519408  20.2130000 138.3959408 112.4469408  18.8330000
 148.9259408 109.3549408  29.1130000 148.4939408 109.0299408  28.3230000
 149.7449408 108.8629408  29.1590000 142.4529408 112.8319408  24.3870000
 143.2899408 113.2969408  24.4070000 141.9209408 113.3219408  23.7600000
 149.3329408 110.1069408   9.6110000 150.1389408 110.5079408   9.2850000
 148.7129408 110.1949408   8.8870000 149.7389408  91.2499408  22.7270000
 149.9719408  90.5979408  22.0660000 148.7969408  91.1349408  22.8560000
 134.6139408 114.3099408  28.8680000 133.7559408 114.7329408  28.8890000
 135.0889408 114.7639408  28.1720000 121.4839408 110.5129408  26.1210000
 121.9909408 109.8839408  25.6070000 120.8779408 110.9039408  25.4910000
 146.4009408 100.1289408  29.6700000 146.3809408 100.6799408  30.4520000
 146.2529408 100.7369408  28.9450000 149.0999408 116.4319408  25.9860000
 148.5239408 116.4859408  26.7480000 148.5919408 115.9469408  25.3350000
 147.4289408 114.6289408  24.5640000 146.6139408 114.5409408  24.0710000
 147.3679408 113.9629408  25.2490000 146.4519408 108.2429408  23.9800000
 146.5979408 109.0739408  23.5290000 145.5169408 108.0689408  23.8690000
 146.6279408  95.1689408  30.1560000 145.8039408  94.7719408  29.8740000
 146.6229408  96.0389408  29.7570000 122.8429408 115.7119408  23.1490000
 123.7689408 115.4969408  23.0340000 122.8479408 116.5679408  23.5780000
 143.8769408 111.7659408  27.1800000 144.5629408 112.2469408  26.7180000
 143.0929408 112.3049408  27.0720000 148.0669408 105.0089408  20.1910000
 148.0739408 105.9439408  19.9830000 147.1889408 104.8459408  20.5340000
 146.0639408 107.5379408  28.8710000 146.7539408 106.9079408  28.6660000
 146.4249408 108.3839408  28.6060000 149.9059408 118.0329408  21.8660000
 149.3759408 118.3819408  22.5830000 150.0419408 117.1129408  22.0930000
 147.5559408 113.3009408  28.4550000 148.1949408 113.8009408  28.9620000
 148.0589408 112.9369408  27.7270000 147.8099408 107.9179408  26.6380000
 147.3599408 108.3039408  25.8870000 147.8709408 106.9859408  26.4280000
 140.8229408 110.4389408  24.5460000 141.4419408 111.1659408  24.6110000
 140.8099408 110.2179408  23.6140000 146.1169408  90.6769408  26.5390000
 145.8869408  90.0879408  25.8210000 146.9099408  90.2969408  26.9170000
 144.0979408 102.2559408  29.3850000 143.7049408 103.1289408  29.3770000
 143.3609408 101.6629408  29.5350000 123.7959408  92.6399408   1.5360000
 123.1589408  93.0979408   0.9870000 123.2689408  92.0539408   2.0780000
 149.0779408 112.0099408  26.4940000 149.7929408 111.5059408  26.8830000
 149.4689408 112.4279408  25.7270000 146.4579408 112.1029408  25.8250000
 147.2999408 111.6859408  26.0080000 146.1359408 111.6579408  25.0400000
 144.2699408 119.2149408  24.6630000 144.2869408 118.9489408  25.5820000
 144.4699408 118.4149408  24.1780000 139.3969408 112.8279408  25.2380000
 139.5079408 112.1059408  24.6190000 140.1119408 112.7199408  25.8640000
 140.7379408  93.9019408  20.2470000 140.8629408  93.9519408  19.3000000
 141.6089408  94.0529408  20.6130000 149.0199408 118.8129408  24.3330000
 149.8619408 119.1639408  24.6250000 148.8459408 118.0819408  24.9260000
 136.8359408  91.2099408  27.0900000 137.4759408  90.5949408  27.4500000
 137.1229408  92.0669408  27.4050000 146.1579408 116.4039408   3.9090000
 145.6669408 117.2129408   4.0520000 145.8099408 116.0549408   3.0890000
 137.0399408 118.4119408  24.8180000 137.5809408 118.5059408  25.6020000
 137.1749408 117.5059408  24.5410000 143.6199408 114.9529408  22.0760000
 142.8519408 114.5989408  21.6270000 144.1499408 115.3379408  21.3780000
 141.2529408 113.5169408  20.7880000 140.5179408 113.0819408  20.3570000
 140.8559408 113.9929408  21.5170000 123.1729408 119.6979408  23.8650000
 122.8949408 119.4999408  22.9710000 123.6089408 120.5479408  23.7990000
 144.4219408  99.4159408  20.1160000 145.2529408  99.6309408  20.5400000
 143.7539408  99.7569408  20.7110000 122.7039408 111.1609408   0.5350000
 121.8629408 111.6189408   0.5440000 122.8899408 111.0209408  -0.3940000
 138.5739408 116.5729408  19.9790000 139.3969408 117.0059408  20.2050000
 137.9349408 116.9379408  20.5900000 143.9579408  91.6669408  23.3620000
 143.0839408  91.9459408  23.6370000 144.0009408  90.7409408  23.6010000
 148.8059408 106.1259408  29.0390000 149.4149408 106.8549408  28.9240000
 149.3669408 105.3549408  29.1220000 143.5929408 110.4459408   6.1030000
 144.4549408 110.0469408   6.2220000 143.6239408 110.8299408   5.2270000
 141.0189408 111.9559408  17.3460000 140.6409408 112.0609408  18.2200000
 141.4569408 112.7889408  17.1720000 149.3579408  96.4659408  21.7420000
 148.9689408  96.1709408  20.9190000 149.0259408  95.8529408  22.3980000
 125.0389408 110.2599408  23.3180000 125.4329408 110.8059408  23.9980000
 124.2329408 109.9279408  23.7140000 144.5659408 117.9129408  29.5880000
 144.9279408 117.0679408  29.3220000 145.1819408 118.2429408  30.2420000
 142.3159408  90.6029408   0.0200000 142.8489408  90.3259408   0.7650000
 142.9519408  90.8169408  -0.6630000 136.0279408 119.2599408  18.5900000
 135.0909408 119.1729408  18.4130000 136.1359408 118.9249408  19.4800000
 140.3859408 114.2079408  23.2040000 140.0829408 115.1069408  23.3300000
 139.8389408 113.6859408  23.7910000 120.8689408  96.2169408   0.9050000
 121.1979408  96.6709408   0.1290000 121.6129408  96.1979408   1.5060000
 124.5629408 115.8619408  25.9740000 123.6279408 116.0279408  26.0910000
 124.7009408 114.9909408  26.3480000 130.0009408 116.2329408  21.9690000
 130.8279408 115.7619408  22.0740000 130.2609408 117.1449408  21.8330000
 133.1139408 119.2469408  18.1040000 133.4209408 118.6579408  17.4150000
 132.3449408 119.6749408  17.7280000 139.4019408 107.0039408  33.4620000
 139.3069408 106.1259408  33.8320000 138.6369408 107.1089408  32.8970000
 141.2879408  95.2629408  59.9310000 140.5409408  94.9539408  60.4440000
 140.9199408  95.9259408  59.3470000 126.9639408 117.2739408  34.1330000
 126.2589408 116.7169408  34.4630000 126.9889408 118.0129408  34.7410000
 141.1249408  91.1489408  51.7350000 140.9649408  90.2999408  51.3230000
 141.6349408  91.6379408  51.0890000 126.7109408 108.7099408  51.4700000
 126.3839408 109.3649408  52.0880000 127.6529408 108.8729408  51.4250000
 135.1049408 107.8279408  45.6050000 134.2939408 107.6459408  45.1300000
 135.7899408 107.7719408  44.9380000 138.8559408 108.6129408  39.2840000
 138.4689408 108.1719408  40.0410000 138.1489408 109.1559408  38.9360000
 129.0639408  98.6819408  47.8260000 128.4579408  98.2489408  48.4280000
 129.3939408  97.9759408  47.2700000 137.4669408 105.2269408  47.9080000
 137.9479408 105.1439408  48.7320000 138.1319408 105.1079408  47.2300000
 142.0799408  99.5039408  36.3360000 141.9909408  99.7379408  35.4120000
 142.7389408 100.1109408  36.6740000 149.3079408 108.9599408  45.2020000
 149.6479408 109.5329408  45.8900000 149.8979408 109.0979408  44.4610000
 122.5329408  97.1629408  58.8470000 123.2739408  97.5749408  59.2930000
 122.8629408  96.9599408  57.9720000 132.9309408 115.5519408  44.1980000
 133.8639408 115.3599408  44.1090000 132.5239408 115.1209408  43.4470000
 148.0369408  95.5629408  35.5490000 147.0969408  95.6829408  35.4130000
 148.2159408  94.6789408  35.2300000 138.3629408 111.3589408  30.6810000
 137.7089408 112.0489408  30.5670000 138.2789408 110.8169408  29.8970000
 138.4319408  94.8569408  55.0460000 138.1149408  94.5139408  55.8810000
 138.3719408  94.1159408  54.4430000 148.7999408  99.9389408  45.7730000
 147.8609408  99.9999408  45.5990000 148.8569408  99.5959408  46.6650000
 122.3889408 110.7699408  33.8460000 123.1819408 111.3059408  33.8470000
 122.6729408 109.9199408  34.1820000 137.9779408 104.4559408  40.6650000
 137.2519408 104.3639408  40.0480000 137.7039408 103.9559408  41.4340000
 129.6549408 114.0029408  60.1860000 129.0479408 114.5939408  59.7410000
 130.5229408 114.3469408  59.9750000 133.5299408 104.6779408  30.5350000
 132.9009408 103.9769408  30.7060000 133.0779408 105.2629408  29.9270000
 136.9329408 112.0279408  43.3670000 137.2779408 112.9039408  43.1980000
 137.6629408 111.4399408  43.1730000 124.4319408 118.7859408  56.2340000
 124.8979408 118.1089408  55.7430000 123.7839408 119.1269408  55.6170000
 131.7599408 113.1179408  38.5430000 131.6899408 113.8819408  37.9720000
 132.0759408 112.4179408  37.9710000 134.5309408 116.0489408  31.8910000
 135.1549408 116.0429408  31.1650000 134.9719408 115.5639408  32.5890000
 136.9779408 104.3809408  58.3850000 137.8199408 103.9829408  58.6060000
 137.1409408 104.8459408  57.5640000 131.0189408  92.1809408  48.1460000
 130.7569408  93.1019408  48.1390000 131.6919408  92.1279408  48.8240000
 135.4189408 104.0349408  43.0950000 134.8099408 103.9809408  43.8320000
 134.8679408 104.2559408  42.3440000 126.8749408 116.9259408  39.7580000
 127.0919408 117.8089408  40.0560000 127.0169408 116.9499408  38.8120000
 132.2769408  99.0759408  56.9600000 131.8759408  99.8269408  56.5240000
 132.9859408  99.4519408  57.4820000 148.5349408 105.5709408  37.6430000
 148.4489408 106.1489408  36.8850000 148.1879408 106.0809408  38.3750000
 144.3849408  99.4109408  47.3650000 144.7209408  98.5179408  47.2950000
 144.2909408  99.5589408  48.3060000 135.8509408 103.9929408  39.0110000
 135.1649408 104.5659408  38.6690000 135.4019408 103.1709408  39.2080000
 127.6489408 107.3009408  42.5020000 127.1329408 107.8939408  43.0490000
 127.6139408 106.4609408  42.9600000 142.4549408  93.6049408  32.6640000
 141.6819408  93.5749408  32.1000000 142.7979408  94.4919408  32.5530000
 141.2289408 110.5009408  44.9470000 140.8759408 111.0379408  45.6570000
 141.9479408 111.0209408  44.5870000 127.2079408  98.2029408  59.8520000
 127.3599408  98.7419408  60.6280000 128.0649408  98.1409408  59.4310000
 130.4099408 115.8839408  56.7950000 130.4019408 116.2829408  55.9250000
 129.6159408 116.2129408  57.2170000 131.1919408 116.2969408  31.5580000
 131.2509408 117.2469408  31.6600000 131.6389408 115.9449408  32.3270000
 133.1469408 102.3189408  57.0580000 133.5739408 102.0469408  56.2450000
 133.8619408 102.4039408  57.6880000 131.3659408 110.8169408  42.9800000
 131.3449408 111.5859408  42.4090000 132.2869408 110.5579408  42.9990000
 135.5709408  94.5019408  53.2080000 136.1229408  95.1429408  52.7600000
 135.2669408  93.9189408  52.5130000 134.5329408 109.5259408  37.8070000
 134.0209408 108.9609408  38.3850000 133.9069408 110.1799408  37.4950000
 131.9419408  94.9309408  48.4310000 132.8109408  95.3169408  48.3240000
 131.7659408  94.9919408  49.3700000 122.9999408 113.7209408  34.9930000
 122.5599408 113.1309408  35.6050000 123.7909408 113.2499408  34.7310000
 126.4589408 109.0469408  44.2110000 125.7969408 108.9559408  44.8960000
 127.0899408 109.6709408  44.5690000 130.9189408 105.5149408  41.9010000
 130.0709408 105.1079408  41.7250000 130.7289408 106.4519408  41.9560000
 127.3769408 118.8119408  31.6800000 126.6809408 118.2869408  31.2850000
 127.2869408 118.6599408  32.6210000 135.6899408 108.6069408  34.5490000
 135.8669408 108.6029408  33.6090000 136.2479408 107.9129408  34.9010000
 130.9679408 108.3959408  45.9660000 131.6029408 107.8829408  45.4660000
 130.1389408 107.9329408  45.8490000 128.6629408 113.0849408  35.7270000
 129.1639408 112.7029408  36.4480000 129.3049408 113.2099408  35.0280000
 138.2059408 101.1969408  41.0920000 138.7899408 101.1579408  40.3350000
 137.3289408 101.0939408  40.7250000 132.6159408  92.7419408  32.6460000
 132.2479408  93.1119408  31.8440000 133.2749408  93.3789408  32.9240000
 143.6789408 109.2509408  55.6230000 142.9449408 108.9459408  56.1550000
 144.0749408 109.9529408  56.1400000 123.9959408 100.0319408  49.2360000
 124.7059408  99.4889408  48.8920000 124.1359408 100.8909408  48.8370000
 133.6049408  99.6929408  33.1680000 134.0819408  98.9459408  33.5280000
 134.2209408 100.4239408  33.2310000 126.1979408 118.7859408  37.3920000
 125.6229408 119.3219408  37.9370000 126.9389408 119.3569408  37.1890000
 135.6389408  96.6119408  38.9870000 135.6199408  96.6119408  39.9440000
 136.5409408  96.8459408  38.7660000 136.1629408 110.3279408  39.8410000
 135.8969408 110.1039408  38.9500000 135.7949408 109.6309408  40.3840000
 138.8369408 109.6889408  43.6890000 139.6529408 109.8079408  44.1740000
 139.0429408 109.9709408  42.7980000 127.3569408 104.9479408  44.1060000
 126.7409408 104.6609408  44.7800000 127.7119408 104.1349408  43.7450000
 142.1589408 101.9809408  38.6940000 142.2029408 102.9319408  38.6020000
 142.8179408 101.6489408  38.0840000 129.7979408 103.5629408  50.7020000
 129.9119408 102.6129408  50.6900000 130.2249408 103.8659408  49.9000000
 125.8779408 101.1339408  58.3530000 126.6849408 101.2089408  58.8610000
 125.1959408 100.9759408  59.0060000 132.6309408 103.1459408  44.3340000
 132.2629408 103.3379408  43.4710000 132.9819408 102.2589408  44.2530000
 124.7069408 105.4199408  53.1280000 124.5639408 105.8999408  52.3120000
 124.9709408 106.0909408  53.7570000 140.6819408 104.5549408  40.8580000
 140.4699408 104.9719408  41.6930000 139.8309408 104.3559408  40.4670000
 138.2509408 100.8129408  57.5970000 137.9399408 100.8729408  56.6940000
 139.1989408 100.9269408  57.5330000 125.0659408 102.1979408  48.1450000
 125.8319408 101.7159408  47.8330000 124.6889408 102.5859408  47.3550000
 124.4699408  96.9909408  51.0950000 124.3759408  96.7169408  50.1820000
 124.4599408  97.9469408  51.0610000 136.7989408  98.8369408  51.9130000
 136.1259408  98.2629408  51.5470000 137.3839408  98.2479408  52.3890000
 137.3339408  91.3149408  47.3720000 137.1459408  92.1649408  47.7700000
 136.5919408  90.7639408  47.6200000 124.3569408 114.6489408  43.1330000
 125.1819408 115.0809408  42.9100000 123.8739408 115.2999408  43.6410000
 133.4409408 106.1729408  38.5040000 133.3789408 105.9409408  37.5780000
 132.7799408 106.8539408  38.6260000 129.2219408 119.9579408  49.5540000
 129.1209408 119.3189408  48.8490000 129.7729408 120.6449408  49.1780000
 125.8979408 116.1729408  45.7840000 124.9769408 116.4009408  45.6590000
 126.2559408 116.1269408  44.8980000 140.9309408  98.1219408  47.8530000
 140.4899408  98.4399408  48.6410000 141.2959408  98.9089408  47.4480000
 123.5469408 119.1949408  44.3880000 123.4529408 118.7309408  43.5560000
 124.0779408 119.9629408  44.1760000 127.6459408 105.5889408  30.5610000
 128.1379408 104.9059408  31.0160000 128.1499408 106.3889408  30.7110000
 129.0259408 106.3989408  45.6100000 128.7289408 106.0099408  46.4320000
 128.4029408 106.0809408  44.9560000 144.9449408 100.7089408  52.4340000
 144.4059408 100.1399408  52.9830000 144.3479408 101.3989408  52.1430000
 132.9919408  96.0789408  50.9050000 133.2669408  96.9929408  50.8340000
 133.4549408  95.7489408  51.6750000 133.9919408 100.0189408  59.0960000
 134.7189408  99.4589408  59.3680000 134.3539408 100.5539408  58.3890000
 135.0069408  97.1169408  58.0480000 135.2319408  97.0419408  58.9750000
 134.1499408  96.6969408  57.9740000 139.7759408 107.0209408  36.7930000
 139.6259408 107.7959408  36.2530000 139.1299408 107.0889408  37.4960000
 144.9269408 105.3199408  39.5870000 145.3159408 104.5869408  40.0650000
 145.3279408 105.2809408  38.7190000 149.0709408  92.3679408  43.5800000
 149.1899408  92.7229408  44.4610000 149.9599408  92.2269408  43.2550000
 135.3469408  97.8619408  43.5700000 135.5059408  97.1419408  42.9600000
 136.2199408  98.1279408  43.8590000 133.9419408 117.7469408  41.2050000
 133.6119408 117.6369408  42.0970000 133.2129408 118.1429408  40.7270000
 121.1999408 107.8119408  59.4490000 121.9049408 108.0979408  60.0290000
 121.6469408 107.3699408  58.7280000 132.5739408 104.1909408  46.7410000
 132.6879408 103.7449408  45.9010000 133.3929408 104.6689408  46.8720000
 135.7109408 102.0629408  58.0250000 136.5479408 101.6029408  58.0980000
 135.9129408 102.9669408  58.2670000 129.4949408 105.9309408  33.8740000
 129.7659408 105.7989408  34.7830000 129.9059408 106.7569408  33.6190000
 128.0449408 108.2839408  47.2700000 127.8129408 107.5769408  47.8720000
 128.2419408 107.8409408  46.4450000 132.3299408 113.4389408  34.0320000
 131.5709408 112.9229408  33.7610000 133.0749408 113.0059408  33.6160000
 123.8559408 118.2669408  36.1100000 123.5329408 119.1219408  35.8250000
 124.7399408 118.4389408  36.4320000 122.1229408 112.1309408  47.8600000
 122.8419408 111.8089408  47.3180000 122.3069408 113.0629408  47.9750000
 138.9909408  98.3469408  35.9690000 139.9089408  98.3779408  36.2400000
 138.8449408  97.4349408  35.7200000 125.8029408 106.0779408  34.3120000
 126.5949408 105.6419408  33.9980000 125.6179408 105.6609408  35.1540000
 135.6349408 101.6509408  33.7230000 136.4549408 101.1739408  33.8460000
 135.4639408 102.0589408  34.5730000 133.6209408 105.0579408  41.2560000
 132.8359408 105.3699408  41.7060000 133.5009408 105.3309408  40.3470000
 126.7349408 100.4089408  46.9120000 127.6709408 100.2119408  46.8740000
 126.3309408  99.5979408  47.2210000 129.1019408 109.7299408  52.1000000
 129.8669408 109.3959408  51.6300000 129.3469408 110.6199408  52.3550000
 128.8879408 110.4159408  31.5990000 128.2829408 109.7779408  31.9770000
 128.7719408 111.2019408  32.1330000 133.4439408  90.5639408  35.1250000
 134.2609408  90.5429408  35.6220000 133.7179408  90.5099408  34.2090000
 128.1309408 107.3219408  39.6840000 128.1119408 108.2399408  39.4110000
 127.9969408 107.3509408  40.6310000 131.8609408  98.8709408  30.8180000
 131.4729408  99.7019408  30.5460000 132.8049408  99.0259408  30.7920000
 134.0549408 110.7059408  49.8650000 133.1819408 110.5199408  50.2090000
 134.1139408 110.1809408  49.0660000 128.7819408 104.8269408  40.5120000
 127.8989408 104.6719408  40.8490000 128.7299408 105.6859408  40.0920000
 145.7759408 105.5769408  45.5950000 146.5949408 105.4519408  45.1160000
 145.8309408 104.9639408  46.3280000 134.7319408  95.0299408  36.7360000
 135.2879408  94.2539408  36.6670000 135.2679408  95.6689408  37.2060000
 134.7409408 108.3739408  58.8420000 135.0239408 109.2489408  58.5730000
 135.2609408 108.1829408  59.6220000 134.8019408 105.4929408  46.8610000
 134.9129408 106.3009408  46.3600000 135.6729408 105.3059408  47.2110000
 127.7279408 103.2519408  56.7680000 127.4999408 102.7349408  57.5410000
 128.4259408 103.8349408  57.0650000 138.8059408 108.6449408  59.5420000
 139.1739408 107.7629408  59.4910000 139.4979408 109.2139408  59.2050000
 147.4529408 102.4809408  42.6510000 146.9679408 101.6609408  42.7380000
 148.3159408 102.2169408  42.3320000 139.8039408 100.9529408  38.8190000
 140.7069408 101.2619408  38.7410000 139.2889408 101.5889408  38.3220000
 133.4919408 100.2479408  45.4210000 134.1179408 100.9619408  45.5410000
 134.0109408  99.5349408  45.0460000 148.8019408  96.7519408  45.1170000
 148.5949408  96.3399408  44.2790000 147.9779408  97.1509408  45.3980000
 126.3509408 102.5299408  50.8020000 125.7639408 102.6359408  50.0530000
 126.8079408 103.3679408  50.8690000 140.3539408  91.1919408  44.3940000
 141.2449408  91.0649408  44.0680000 140.3279408  92.1089408  44.6690000
 132.9529408 108.1909408  34.7110000 132.8259408 108.4779408  35.6150000
 133.8859408 108.3269408  34.5450000 125.2889408 106.5969408  31.2440000
 126.1979408 106.4009408  31.4730000 125.0949408 106.0109408  30.5130000
 133.8409408 105.9929408  49.9150000 133.3829408 105.6059408  49.1690000
 134.1529408 106.8389408  49.5910000 137.9259408 103.8949408  44.1400000
 136.9729408 103.9149408  44.2200000 138.2449408 104.1439408  45.0080000
 137.9639408  94.7779408  30.3340000 137.0519408  95.0459408  30.4500000
 138.1979408  94.3589408  31.1630000 140.7849408 101.9599408  47.6010000
 141.3309408 101.2469408  47.2700000 140.9109408 102.6709408  46.9720000
 136.0959408 100.7469408  39.5820000 135.3069408 100.3579408  39.9590000
 136.3329408 100.1619408  38.8630000 130.6029408 108.1769408  42.3180000
 129.6709408 108.0139408  42.4610000 130.6839408 109.1309408  42.3230000
 136.8019408 110.5669408  45.9690000 137.5409408 109.9729408  45.8380000
 136.7199408 111.0359408  45.1380000 137.8219408 100.6709408  54.7140000
 137.0509408 100.2079408  54.3860000 138.5589408 100.2549408  54.2680000
 140.9929408 106.8169408  31.4860000 141.3499408 107.6909408  31.3270000
 140.4049408 106.9299408  32.2320000 147.1529408 103.0869408  46.5300000
 147.5009408 102.5009408  47.2020000 146.4709408 102.5749408  46.0950000
 134.8989408 116.5689408  38.8670000 134.8359408 116.8249408  39.7880000
 134.8469408 115.6129408  38.8800000 137.9739408 100.1959408  34.3400000
 138.5639408 100.9399408  34.4650000 138.2259408  99.5729408  35.0210000
 134.5639408 101.3319408  42.5050000 135.3129408 101.9219408  42.4160000
 134.8419408 100.5249408  42.0710000 125.8949408 109.3489408  40.4970000
 125.2319408 109.5939408  41.1420000 125.4229408 108.8129408  39.8600000
 128.3729408 113.4639408  43.1860000 129.1639408 113.9339408  42.9220000
 127.6539408 113.9979408  42.8490000 128.5919408 110.0079408  41.6570000
 127.6919408 109.6829408  41.6220000 128.5009408 110.9549408  41.7650000
 128.5059408 119.5499408  34.7200000 129.2599408 119.8159408  34.1930000
 128.6619408 119.9459408  35.5770000 124.0379408 117.2559408  39.9530000
 124.9729408 117.0479408  39.9550000 123.9999408 118.1869408  39.7350000
 137.8569408  95.7969408  36.3200000 138.7739408  95.6119408  36.1180000
 137.3679408  95.4069408  35.5960000 144.8209408  97.4299408  38.6100000
 144.9309408  96.7309408  37.9650000 145.4989408  98.0679408  38.3900000
 137.8409408 101.3329408  51.0730000 137.5779408 100.4969408  51.4570000
 137.0239408 101.8229408  50.9800000 136.4069408  93.6289408  49.0480000
 137.1099408  94.2789408  49.0450000 136.1969408  93.5069408  49.9740000
 131.6449408  98.1269408  53.6070000 131.9199408  97.4939408  54.2710000
 131.9309408  98.9729408  53.9510000 138.3389408  98.6359408  47.0160000
 138.1949408  99.4509408  47.4970000 139.2549408  98.4159408  47.1850000
 127.4669408  99.5539408  56.4890000 127.0789408 100.1509408  57.1290000
 127.8689408 100.1279408  55.8380000 133.4879408  98.3599408  47.7820000
 132.5719408  98.4729408  48.0380000 133.7179408  99.1799408  47.3450000
 147.1329408 103.4899408  36.5760000 146.2129408 103.7239408  36.4540000
 147.5309408 104.2739408  36.9540000 125.3919408  99.8369408  51.5440000
 124.4879408 100.0839408  51.7380000 125.8819408 100.6569408  51.5990000
 135.6989408 103.6459408  51.5090000 134.9289408 104.2119408  51.4530000
 135.7449408 103.3939408  52.4310000 141.4999408 110.8909408  51.6630000
 141.5299408 111.8449408  51.5890000 141.2169408 110.5929408  50.7990000
 136.1989408 102.7839408  54.3270000 136.9519408 102.3809408  54.7590000
 135.5079408 102.1229408  54.3830000 140.3079408 102.6819408  51.5200000
 139.5659408 102.7069408  52.1230000 140.0339408 103.2229408  50.7790000
 143.5869408 101.2759408  33.3410000 142.6949408 101.6219408  33.3230000
 144.1119408 101.9439408  32.9000000 127.8799408 116.0279408  53.7110000
 128.5289408 116.2299408  53.0370000 127.0729408 115.8609408  53.2240000
 138.4169408 104.7709408  50.7260000 138.8399408 105.1919408  51.4750000
 137.5249408 104.5919408  51.0240000 134.9759408 105.1649408  53.9550000
 135.6309408 105.7189408  53.5300000 135.4869408 104.4979408  54.4130000
 140.1269408 107.4139408  47.2570000 140.8569408 108.0169408  47.1180000
 140.2649408 107.0689408  48.1390000 137.7229408  99.0149408  44.5310000
 138.2079408  99.8399408  44.5330000 137.7629408  98.7109408  45.4380000
 137.0589408  94.2909408  33.6940000 137.3229408  93.4279408  34.0130000
 136.3329408  94.1129408  33.0950000 132.1429408 103.0499408  53.4810000
 132.7959408 103.1569408  52.7890000 131.8279408 103.9369408  53.6530000
 131.5199408 100.6549408  54.6330000 131.7749408 101.4879408  54.2350000
 130.7539408 100.3749408  54.1320000 148.8309408  97.2719408  32.2880000
 148.8699408  96.9779408  33.1980000 149.5399408  96.7969408  31.8530000
 132.8319408  96.0959408  55.8560000 132.2219408  96.7999408  56.0740000
 132.2899408  95.4319408  55.4300000 142.0739408  99.3869408  59.4840000
 142.9599408  99.0269408  59.4310000 141.4999408  98.6319408  59.3590000
 137.8369408  95.8009408  48.3520000 138.7399408  95.6199408  48.0890000
 137.7859408  96.7559408  48.3950000 135.8959408 109.4069408  54.8660000
 135.5879408 108.8379408  55.5710000 136.8499408 109.3899408  54.9430000
 132.3099408 107.8379408  48.4750000 131.5999408 107.7869408  47.8350000
 132.9599408 108.4099408  48.0670000 141.5769408 100.0929408  43.5580000
 140.8019408 100.5149408  43.9290000 141.6999408 100.5189408  42.7100000
 123.0429408 102.8729408  55.6090000 123.5349408 102.7249408  54.8020000
 122.7319408 102.0039408  55.8640000 134.6799408 119.2389408  56.7010000
 135.3729408 119.7719408  56.3100000 134.3379408 119.7769408  57.4150000
 125.6739408 113.6199408  30.0820000 126.0949408 113.8689408  30.9050000
 126.3839408 113.2649408  29.5480000 123.0279408 108.2679408  31.4330000
 123.1569408 109.2159408  31.4620000 123.8729408 107.9189408  31.1520000
 125.6639408  98.1749408  48.2520000 126.2629408  97.8789408  48.9380000
 125.1889408  97.3859408  47.9920000 125.9109408  96.2639408  53.1760000
 125.8639408  95.3079408  53.1610000 125.2579408  96.5469408  52.5370000
 132.0799408  92.2879408  55.6550000 131.8949408  92.3419408  56.5920000
 131.6749408  93.0719408  55.2840000 123.4729408  99.6029408  57.1470000
 123.7089408  98.7169408  56.8730000 124.0979408  99.8149408  57.8400000
 140.1159408  93.8369408  45.0270000 140.6079408  94.5009408  44.5440000
 139.2639408  93.8059408  44.5920000 129.1499408 119.6889408  52.5040000
 129.9349408 120.2339408  52.5540000 129.1679408 119.3219408  51.6200000
 130.2899408 106.9219408  56.2360000 130.6129408 106.3839408  55.5120000
 130.5349408 107.8159408  55.9980000 125.6959408  96.5609408  57.9650000
 126.2729408  96.7839408  57.2350000 126.2299408  96.7069408  58.7460000
 129.0229408 100.0999408  53.4030000 128.3649408 100.6929408  53.7660000
 128.5369408  99.3039408  53.1870000 135.5569408 115.5499408  56.2860000
 134.8219408 114.9969408  56.0220000 136.0899408 115.6339408  55.4950000
 127.1549408  97.1399408  55.5410000 126.6739408  97.0259408  54.7220000
 127.2739408  98.0859408  55.6200000 134.3109408 100.8199408  55.0000000
 133.4729408 100.6859408  54.5580000 134.6099408  99.9379408  55.2200000
 144.7679408  96.0699408  47.1460000 143.8289408  96.0299408  46.9640000
 145.1819408  95.7409408  46.3480000 136.3049408 107.8459408  48.6500000
 136.4699408 108.5339408  48.0040000 136.6669408 107.0539408  48.2540000
 131.4229408  91.4139408  52.3640000 131.7979408  91.2949408  53.2370000
 132.1729408  91.6199408  51.8060000 124.3739408  92.0349408  52.5920000
 125.0449408  92.5869408  52.9950000 123.7539408  92.6539408  52.2080000
 127.8019408 106.5439408  37.0640000 127.6149408 105.6139408  37.1890000
 127.8329408 106.9049408  37.9500000 129.5459408 104.8449408  57.9910000
 129.9689408 105.6099408  57.6000000 129.0599408 105.1949408  58.7380000
 121.7749408  90.6259408  58.9360000 122.5749408  91.0719408  59.2140000
 121.1079408  91.3129408  58.9280000 132.7309408 102.2139408  48.9580000
 132.2289408 101.4239408  48.7610000 132.6519408 102.7509408  48.1690000
 123.0389408 117.9559408  58.5700000 123.2659408 117.7619408  57.6600000
 122.9049408 118.9029408  58.5870000 128.8229408 109.2789408  58.8730000
 129.0599408 108.7649408  59.6450000 128.2279408 109.9509408  59.2050000
 130.8119408  94.5099408  54.7060000 129.9129408  94.5729408  55.0290000
 130.7219408  94.4639408  53.7540000 128.1589408 101.4079408  59.5170000
 129.1069408 101.5379408  59.5250000 127.9899408 100.8219408  60.2550000
 127.4109408  98.2469408  52.5390000 127.0039408  97.3889408  52.6570000
 126.8979408  98.6629408  51.8460000 125.9589408  92.4859408  59.6520000
 125.4029408  92.4139408  60.4270000 125.4749408  92.0279408  58.9650000
 148.9339408  89.9049408  57.3680000 149.3039408  90.6489408  57.8430000
 149.4589408  89.8439408  56.5700000 138.8269408  93.5309408  52.3500000
 138.8589408  92.6169408  52.6340000 139.3369408  93.5479408  51.5400000
 133.0339408 104.4019408  33.2410000 133.4299408 104.6769408  32.4150000
 132.6019408 103.5729408  33.0360000 134.6579408  91.6439408  54.3280000
 135.2989408  91.5509408  55.0330000 133.8909408  92.0299408  54.7510000
 129.2199408 100.8319408  50.8010000 128.2959408 100.9889408  50.6070000
 129.2279408 100.5439408  51.7140000 128.1889408 107.1529408  53.5900000
 129.0689408 107.0679408  53.9560000 127.9749408 108.0809408  53.6910000
 141.0649408  99.6399408  32.0140000 141.5329408  99.0169408  32.5690000
 141.5449408  99.6309408  31.1850000 124.8949408 108.8529408  36.4910000
 125.2919408 109.6979408  36.7040000 125.4089408 108.5259408  35.7530000
 120.8779408 119.1329408  31.2170000 121.1779408 119.6449408  30.4660000
 121.0379408 118.2229408  30.9670000 135.2509408  98.2789408  55.3330000
 134.5369408  97.6459408  55.4040000 135.7219408  98.2039408  56.1630000
 136.1519408 106.8349408  36.9130000 135.4469408 106.5409408  36.3350000
 135.7099408 107.0769408  37.7270000 121.6169408  99.6609408  55.2060000
 122.3259408  99.5369408  55.8370000 122.0529408  99.9679408  54.4120000
 144.0269408 109.3799408  51.4100000 144.2849408 108.4959408  51.6720000
 143.1719408 109.5119408  51.8210000 134.3959408 108.1949408  40.7400000
 134.3709408 108.1429408  41.6950000 134.2869408 107.2889408  40.4480000
 125.1149408  94.0059408  56.8730000 124.1869408  94.1409408  56.6820000
 125.3489408  94.7299408  57.4530000 124.5679408 102.7609408  53.3450000
 124.5269408 103.7069408  53.4870000 124.8839408 102.6679408  52.4460000
 141.5419408  92.2789408  54.3060000 141.1949408  92.1159408  53.4290000
 141.4429408  91.4439408  54.7630000 134.6329408 113.1429408  40.1660000
 134.8209408 113.6079408  39.3500000 134.7559408 112.2189408  39.9490000
 135.3159408 102.0549408  46.3340000 134.9349408 102.8129408  46.7780000
 136.1729408 101.9419408  46.7450000 142.2929408 107.8109408  53.8080000
 142.1829408 107.0259408  54.3450000 142.7159408 108.4419408  54.3890000
 129.7159408 107.2639408  30.6440000 130.4809408 106.8889408  30.2080000
 130.0779408 107.7609408  31.3780000 129.6429408 117.8269408  54.9720000
 129.4569408 117.5769408  54.0670000 130.3899408 118.4219408  54.9080000
 127.2109408 101.8149408  54.3940000 126.3699408 102.1359408  54.0660000
 127.5599408 102.5409408  54.9100000 131.3649408  99.9299408  48.7550000
 130.7509408  99.2719408  48.4300000 131.2129408  99.9549408  49.7000000
 134.3869408 110.9349408  31.0510000 133.5169408 111.2199408  30.7720000
 134.8489408 110.7409408  30.2360000 130.7769408  99.9669408  45.3550000
 131.7099408 100.1599408  45.2610000 130.7469408  99.1889408  45.9110000
 123.5569408  97.1909408  56.0440000 124.3569408  96.6719408  56.1280000
 123.4109408  97.2549408  55.1000000 139.8279408 105.7489408  43.0870000
 140.5869408 105.7009408  43.6680000 139.2939408 104.9909408  43.3260000
 120.9909408 104.1799408  59.6390000 121.5389408 104.9439408  59.4570000
 120.9489408 104.1369408  60.5940000 131.3459408 103.1939408  58.8840000
 130.7059408 103.7409408  58.4290000 131.9039408 102.8469408  58.1880000
 148.4329408  91.3169408  47.7720000 148.3759408  90.3929408  48.0160000
 148.3789408  91.7879408  48.6040000 136.9629408 106.6139408  52.6300000
 136.8069408 107.5369408  52.8310000 137.8629408 106.5879408  52.3060000
 146.9299408 101.9079408  31.8610000 146.9209408 102.4829408  32.6270000
 147.6339408 101.2839408  32.0360000 135.8339408  93.3109408  31.4930000
 136.3929408  92.5349408  31.4550000 135.4889408  93.4019408  30.6050000
 120.8749408  93.4179408  53.9600000 120.5559408  92.5409408  53.7490000
 121.6379408  93.5389408  53.3940000 133.8929408 109.7199408  47.2500000
 133.8199408 110.5249408  46.7370000 134.7049408 109.3139408  46.9450000
 135.9109408 117.6449408  50.9300000 135.4609408 116.9469408  50.4540000
 135.2979408 117.8989408  51.6190000 135.5579408  94.1889408  56.1150000
 134.8629408  94.8469408  56.1260000 135.7909408  94.1009408  55.1910000
 137.6369408 120.0739408  52.6510000 137.4279408 119.3739408  52.0330000
 137.3079408 119.7569408  53.4920000 129.3779408  98.0839408  58.2570000
 128.8019408  98.1769408  57.4980000 130.1869408  98.5259408  58.0000000
 127.9469408  97.0969408  49.7360000 127.9239408  96.1409408  49.7090000
 128.7869408  97.3059408  50.1460000 136.8989408 119.9439408  35.6780000
 136.7499408 119.2089408  36.2740000 136.6159408 119.6199408  34.8230000
 129.8299408 117.2289408  35.4010000 128.9329408 117.4469408  35.1470000
 130.3679408 117.5429408  34.6740000 138.4289408 119.3959408  58.3290000
 137.9429408 118.5779408  58.2260000 138.7299408 119.3839408  59.2380000
 131.1519408 112.9069408  50.7830000 131.1849408 111.9589408  50.9060000
 130.5209408 113.0349408  50.0740000 131.0869408 115.7069408  37.3250000
 130.8939408 116.1889408  38.1280000 130.7599408 116.2699408  36.6230000
 122.6749408 108.7829408  40.9760000 123.1839408 109.3299408  41.5740000
 123.0549408 108.9529408  40.1140000 133.9669408 105.5319408  35.7910000
 134.1179408 104.5939408  35.6770000 133.3829408 105.7699408  35.0710000
 129.7219408 118.0699408  38.6160000 129.4219408 118.0619408  37.7080000
 129.1469408 118.6979408  39.0530000 131.7279408 110.3879408  51.2710000
 131.6209408 109.5149408  50.8940000 132.3419408 110.2629408  51.9960000
 148.0529408 115.8899408  42.2050000 148.2489408 116.7309408  42.6180000
 147.0989408 115.8779408  42.1250000 133.8599408  96.7389408  32.4700000
 133.0679408  97.2019408  32.1940000 133.5509408  96.0939408  33.1060000
 124.9999408 119.5199408  48.2440000 125.1339408 119.6689408  49.1800000
 124.6149408 120.3359408  47.9240000 130.5059408 109.8669408  36.1100000
 129.8559408 109.5139408  35.5030000 129.9949408 110.3779408  36.7380000
 133.0909408  95.1259408  34.6640000 133.6829408  95.1169408  35.4160000
 132.3979408  94.5079408  34.8970000 123.3269408 114.6049408  49.3680000
 124.2059408 114.2289408  49.3230000 123.4169408 115.4729408  48.9750000
 120.0379408 111.4779408  34.6990000 120.9309408 111.1549408  34.5830000
 119.4899408 110.8369408  34.2450000 135.7609408 115.8819408  34.7460000
 135.6409408 115.0999408  34.2060000 134.9199408 115.9989408  35.1890000
 134.2179408 110.3289408  43.1910000 134.4609408 111.2159408  42.9250000
 135.0449408 109.9189408  43.4450000 137.6079408 111.4719408  51.4500000
 137.1129408 112.1989408  51.8280000 137.2049408 110.6879408  51.8230000
 132.8429408 114.9729408  51.9030000 132.4879408 114.2539408  51.3800000
 133.3269408 115.5089408  51.2750000 124.6779408 112.4899408  46.5850000
 125.2769408 113.2359408  46.6160000 125.2109408 111.7439408  46.8610000
 125.7979408 111.3969408  36.7650000 126.4539408 111.7799408  37.3470000
 124.9819408 111.4349408  37.2640000 137.4849408 117.6719408  37.7400000
 136.6389408 117.2889408  37.9700000 137.8719408 117.0489408  37.1250000
 122.3099408 108.7869408  35.5240000 121.6629408 108.6259408  36.2120000
 123.1549408 108.6519408  35.9530000 134.3059408 118.7819408  37.3720000
 134.7559408 118.1469408  37.9280000 133.9669408 118.2639408  36.6420000
 144.3189408 114.7159408  44.1060000 144.8969408 113.9829408  43.8980000
 144.5489408 115.3919408  43.4680000 126.4959408 108.9039408  32.3800000
 125.9039408 109.5189408  31.9470000 125.9969408 108.0889408  32.4350000
 125.8519408 117.3879408  59.9390000 125.2559408 117.5509408  59.2070000
 125.3619408 116.8089408  60.5230000 136.4369408 109.0669408  51.2430000
 136.5039408 108.3559408  50.6060000 135.6939408 109.5899408  50.9420000
 127.2649408 113.0889408  33.3920000 127.5729408 113.8519408  32.9040000
 127.6459408 113.1919408  34.2640000 130.3759408 113.4779408  47.1180000
 129.6279408 113.2069408  47.6500000 130.5139408 112.7509408  46.5100000
 135.4449408 115.1009408  44.0140000 136.2459408 115.2109408  43.5020000
 135.0809408 114.2679408  43.7140000 124.2729408 110.1469408  42.5690000
 123.8439408 110.9559408  42.8460000 125.0339408 110.0699408  43.1450000
 124.1789408 107.7809408  38.9290000 124.2309408 108.1619408  38.0530000
 123.5919408 107.0319408  38.8310000 131.1639408 119.3629408  44.0990000
 131.9599408 119.0219408  44.5070000 130.8289408 120.0059408  44.7250000
 131.2709408 119.4239408  30.7540000 131.1439408 119.1009408  29.8620000
 130.7259408 120.2099408  30.8040000 130.1639408 104.3359408  47.9330000
 129.7059408 103.4989408  47.8530000 130.9369408 104.2409408  47.3770000
 126.7049408 114.8669408  37.0240000 127.3139408 114.3839408  36.4660000
 126.0519408 115.2189408  36.4190000 120.7809408 107.7779408  33.0700000
 121.3749408 107.8329408  33.8190000 121.3059408 108.0689408  32.3250000
 126.9129408 116.0559408  43.0170000 126.7609408 116.9919408  43.1450000
 127.8609408 115.9539408  43.1010000 129.9689408 115.5049408  41.5150000
 130.0609408 116.2039408  42.1630000 129.5309408 115.9229408  40.7730000
 130.9059408 112.2719408  31.9450000 130.8709408 111.3879408  31.5790000
 130.4339408 112.8129408  31.3120000 135.8529408 113.8829408  37.9390000
 135.9139408 113.7729408  36.9900000 136.7569408 114.0099408  38.2250000
 127.6779408 105.6369408  48.2270000 127.3809408 105.6059408  49.1360000
 128.4549408 105.0779408  48.2080000 124.3649408 112.5619408  40.9050000
 123.8259408 113.0119408  41.5560000 125.0559408 113.1889408  40.6910000
 131.6299408 113.2589408  41.2250000 131.9139408 113.2529408  40.3110000
 130.9499408 113.9319408  41.2610000 123.3079408 112.3489408  44.1740000
 123.6449408 113.1049408  43.6930000 123.8179408 112.3319408  44.9840000
 140.0859408  93.0319408  31.4180000 140.4329408  92.3479408  30.8450000
 139.2249408  92.7079408  31.6830000 148.1769408  92.4219408  50.1510000
 147.3749408  92.2089408  50.6290000 148.4289408  93.2859408  50.4760000
 139.2209408 118.9019408  39.3070000 138.6819408 119.2899408  39.9960000
 138.5979408 118.6619408  38.6210000 126.7389408 114.1779408  39.9850000
 126.8389408 115.0859408  40.2700000 126.8689408 114.2079408  39.0370000
 131.3089408 109.2199408  55.3400000 132.0399408 109.3309408  54.7320000
 131.4799408 109.8519408  56.0380000 146.3379408  98.5209408  44.7070000
 145.9319408  99.3879408  44.7270000 145.5999408  97.9109408  44.7000000
 123.1059408 111.9459408  38.1800000 123.4189408 112.7029408  38.6760000
 122.1519408 112.0229408  38.2010000 135.4369408 113.2539408  50.0090000
 136.0059408 113.1119408  49.2530000 135.0009408 112.4129408  50.1430000
 127.0619408 111.4499408  39.2770000 127.2629408 112.2119408  39.8210000
 126.5489408 110.8769408  39.8470000 132.4839408 116.0199408  59.2340000
 132.1589408 115.9759408  60.1330000 131.7009408 116.1619408  58.7020000
 132.0659408 118.8869408  39.7040000 131.2279408 118.5389408  39.3980000
 132.5209408 119.1529408  38.9050000 131.2699408 116.0949408  46.5260000
 131.8939408 116.0249408  45.8040000 131.2699408 115.2259408  46.9290000
 130.8659408 108.4719408  32.7640000 130.6719408 109.4039408  32.8690000
 131.5619408 108.2989408  33.3990000 133.6439408  90.4429408  31.8470000
 132.8629408  90.2199408  31.3410000 133.6489408  91.3999408  31.8730000
 129.4209408 111.4549408  37.9740000 128.8169408 111.4819408  38.7160000
 130.2109408 111.8929408  38.2920000 148.8549408 113.9129408  40.4620000
 148.1329408 113.2899408  40.3720000 148.5459408 114.5469408  41.1090000
 129.8059408 105.8759408  51.7940000 128.8959408 106.1509408  51.9020000
 129.7489408 104.9669408  51.5000000 127.9939408 111.3219408  44.6600000
 128.8919408 111.3319408  44.9910000 127.9779408 112.0019408  43.9870000
 145.4639408 115.1709408  38.5830000 144.5769408 115.4189408  38.3240000
 145.9009408 114.9499408  37.7600000 144.4759408 110.8279408  49.0240000
 145.3199408 111.0919408  48.6570000 144.7019408 110.2359408  49.7420000
 128.2409408 109.7249408  55.2630000 128.0479408 109.1849408  56.0300000
 129.1959408 109.7239408  55.2030000 149.8429408 116.8959408  38.9490000
 149.2369408 116.1979408  38.6960000 150.4319408 116.4839408  39.5810000
 133.2739408 116.0209408  35.5640000 133.0779408 115.8549408  36.4860000
 132.5129408 115.6839408  35.0920000 127.9659408 113.2009408  54.6000000
 128.6309408 112.7009408  54.1270000 127.9549408 114.0549408  54.1660000
 148.8189408 118.9629408  49.5480000 149.3499408 118.7979408  50.3270000
 147.9169408 118.8389408  49.8420000 127.1999408  92.1849408  49.7970000
 127.7519408  91.4189408  49.6400000 126.4489408  91.8439408  50.2840000
 136.6659408 102.2829408  31.1970000 136.1439408 103.0379408  30.9240000
 136.2319408 101.9649408  31.9890000 131.4439408 105.8639408  53.9440000
 132.0879408 106.3889408  53.4680000 130.7859408 105.6379408  53.2870000
 130.8959408 109.7499408  39.9370000 130.1039408 109.8069408  40.4710000
 131.6099408 109.9329408  40.5480000 139.0259408 104.6979408  35.6060000
 139.1789408 105.5409408  36.0320000 138.8219408 104.0999408  36.3250000
 126.7689408 118.4729408  44.2330000 127.3599408 119.2059408  44.4070000
 125.9639408 118.6979408  44.6990000 129.7699408 112.6009408  56.6800000
 129.2829408 112.6389408  55.8560000 129.7329408 113.4939408  57.0220000
 147.3529408  90.3099408  42.8330000 147.5099408  89.6729408  43.5300000
 147.9369408  91.0399408  43.0390000 132.1129408 108.3489408  37.7370000
 131.7449408 108.5769408  38.5910000 131.5649408 108.8179408  37.1070000
 144.6629408 109.5749408  42.4850000 144.9049408 108.8659408  43.0800000
 144.1909408 109.1409408  41.7740000 121.4539408 119.7109408  45.8930000
 121.4329408 120.6619408  46.0040000 122.2849408 119.5399408  45.4500000
 126.8329408 110.5419408  47.8900000 127.4509408 109.8449408  47.6710000
 126.2749408 110.1639408  48.5700000 145.2199408 104.8659408  31.3530000
 145.3179408 104.0859408  30.8060000 144.4369408 105.3009408  31.0120000
 138.8679408 117.6099408  33.3490000 139.7269408 117.3279408  33.6620000
 138.2529408 117.2769408  34.0020000 131.2019408 118.7629408  33.4690000
 131.2119408 119.5939408  33.9450000 131.6049408 118.9659408  32.6240000
 126.1329408 113.5059408  50.1000000 126.3269408 113.2889408  49.1880000
 126.9599408 113.8419408  50.4480000 130.2109408 118.4339408  41.9620000
 131.0079408 118.2959408  41.4500000 130.5229408 118.6039408  42.8510000
 137.3879408 112.3639408  57.4260000 137.6389408 112.8729408  58.1970000
 138.1209408 112.4709408  56.8190000 121.6809408 118.4499408  37.5820000
 122.3499408 117.9409408  37.1260000 120.8959408 117.9039408  37.5440000
 145.9239408 112.7609408  43.2040000 145.7279408 112.7439408  42.2670000
 146.0819408 111.8459408  43.4340000 139.3099408 116.6769408  44.0320000
 139.6109408 116.8749408  44.9190000 139.3619408 115.7229408  43.9680000
 123.3539408 114.7089408  39.0660000 123.7559408 115.5449408  39.3010000
 122.5179408 114.9489408  38.6650000 121.4129408 116.7549408  30.3960000
 122.1889408 117.0679408  29.9310000 121.2349408 115.8959408  30.0140000
 149.6089408 117.8679408  45.3230000 150.1049408 117.1339408  44.9590000
 150.2649408 118.5469408  45.4810000 142.3659408 104.6299408  38.6880000
 141.7399408 104.6659408  39.4110000 143.1379408 105.0919408  39.0160000
 123.9449408 116.8669408  48.1460000 123.7629408 116.8199408  47.2080000
 124.4529408 117.6719408  48.2510000 133.2799408 112.0519408  45.6120000
 132.3279408 111.9589408  45.6370000 133.5199408 111.8259408  44.7140000
 132.9559408 111.3659408  36.3640000 133.4859408 111.8059408  35.6990000
 132.4029408 110.7609408  35.8690000 137.0119408 113.5979408  30.0990000
 137.4669408 114.3679408  30.4400000 136.1409408 113.9179408  29.8630000
 127.1949408 112.4749408  58.1130000 126.6079408 112.3649408  57.3650000
 128.0739408 112.3999408  57.7400000 138.2589408 102.5979408  37.4360000
 137.7069408 101.9699408  36.9700000 137.6589408 103.0499408  38.0290000
 135.3399408 110.8529408  58.1340000 134.7079408 111.5289408  57.8920000
 136.1799408 111.1839408  57.8140000 139.9039408  90.2909408  56.3150000
 139.3069408  90.0529408  57.0240000 140.2959408  91.1169408  56.5980000
 146.3759408 113.1479408  52.1470000 145.9069408 113.8409408  51.6830000
 147.2419408 113.1299408  51.7400000 128.6959408  94.9359408  56.2190000
 128.5659408  94.8349408  57.1620000 127.9669408  95.4869408  55.9330000
 125.0549408  90.9999408  57.6170000 125.2369408  91.8089408  57.1400000
 124.9239408  90.3429408  56.9330000 132.6159408 112.0489408  54.5270000
 132.7129408 111.7699408  55.4380000 133.1399408 111.4229408  54.0270000
 124.7479408 116.4299408  32.0810000 124.8309408 115.7089408  32.7050000
 123.9279408 116.8609408  32.3190000 129.2759408 116.4629408  44.7030000
 129.7309408 116.2569408  45.5190000 129.1089408 117.4049408  44.7520000
 143.3719408 119.3539408  46.9710000 143.3079408 118.3989408  46.9860000
 142.9949408 119.6059408  46.1290000 136.2559408 113.4489408  52.4580000
 135.9049408 113.5529408  51.5740000 135.4959408 113.5559408  53.0320000
 126.9949408 105.9949408  50.7340000 126.4209408 105.7369408  51.4560000
 126.9939408 106.9519408  50.7580000 136.4109408 117.9309408  46.0400000
 136.7929408 118.4529408  46.7440000 136.9819408 118.0879408  45.2870000
 134.1419408 114.1589408  54.0840000 133.6309408 113.3779408  54.2940000
 133.5819408 114.6599408  53.4910000 133.5379408 106.9969408  52.3460000
 134.1009408 106.3869408  52.8230000 133.4289408 106.5979408  51.4830000
 133.4829408 109.4799408  53.5240000 133.6019408 108.6709408  53.0260000
 134.1959408 109.4769408  54.1620000 125.5179408 110.8639408  30.6340000
 124.6129408 110.9029408  30.3240000 125.8689408 111.7369408  30.4600000
 123.9199408 113.7329408  57.9040000 123.7749408 112.7969408  57.7640000
 124.6069408 113.7729408  58.5690000 143.3409408 115.3679408  56.2690000
 143.8739408 115.7849408  55.5910000 142.6439408 115.9989408  56.4470000
 141.0999408 117.1969408  56.2780000 140.7519408 117.3389408  55.3980000
 141.3499408 118.0699408  56.5810000 134.6979408 115.7839408  49.6430000
 134.8279408 115.7939408  48.6940000 134.6369408 114.8559408  49.8670000
 131.6579408 119.4879408  55.1230000 131.5199408 120.2759408  55.6490000
 132.5939408 119.3049408  55.2060000 125.6269408 115.5319408  52.0670000
 126.1349408 115.9269408  51.3580000 125.2669408 114.7309408  51.6870000
 128.4599408  92.5539408  54.9290000 128.0919408  91.8119408  55.4080000
 128.4689408  93.2689408  55.5650000 123.5699408 110.9729408  57.9310000
 122.6959408 110.8599408  57.5580000 124.1639408 110.6609408  57.2500000
 144.5209408 107.0009408  52.3890000 145.1209408 106.3069408  52.6620000
 143.6929408 106.7869408  52.8180000 131.6979408 110.0789408  59.7730000
 130.8099408 109.8989408  59.4640000 132.0089408 109.2409408  60.1130000
 130.6369408 111.0749408  45.7480000 131.0509408 110.3259408  46.1760000
 130.8889408 110.9959408  44.8280000 127.8009408 107.6069408  56.9660000
 127.9509408 108.0929408  57.7770000 128.6709408 107.3129408  56.6970000
 134.6939408 117.6009408  59.4540000 133.7959408 117.3609408  59.6810000
 134.6029408 118.1929408  58.7070000 134.6019408 118.8039408  53.5100000
 135.1489408 118.3629408  54.1610000 134.6489408 119.7299408  53.7450000
 128.0119408 115.6129408  59.1090000 127.3469408 115.9979408  59.6800000
 127.5689408 115.4959408  58.2690000 137.2359408 115.8399408  54.2300000
 137.9919408 115.7569408  53.6490000 136.6439408 115.1399408  53.9550000
 136.3829408 115.0279408  46.5230000 135.9809408 114.9789408  45.6560000
 136.6939408 115.9299408  46.5930000 119.8979408 115.6919408  52.9550000
 119.7849408 114.8959408  53.4740000 120.8379408 115.7319408  52.7780000
 128.7329408 115.2859408  32.7840000 129.4529408 115.3559408  32.1580000
 128.2929408 116.1349408  32.7390000 146.7709408  93.6649408  52.7270000
 146.7729408  92.8369408  53.2070000 147.3549408  94.2339408  53.2270000
 125.4859408 107.0279408  55.4590000 125.3769408 106.1209408  55.7470000
 126.3439408 107.2849408  55.7970000 129.9189408  93.5539408  51.8240000
 129.1149408  93.4609408  52.3350000 130.5089408  92.8899408  52.1800000
 131.3379408 118.9519408  57.8980000 130.3879408 118.9459408  57.7800000
 131.6909408 118.7969408  57.0220000 128.4839408 102.6569408  42.7750000
 128.7579408 103.2109408  42.0450000 129.2489408 102.1129408  42.9640000
 124.8689408 112.0059408  34.4930000 125.4839408 112.3369408  33.8380000
 125.3879408 111.9349408  35.2950000 121.1839408 113.8679408  32.2820000
 121.7039408 113.3719408  31.6500000 121.6219408 113.7219408  33.1200000
 121.2759408 110.9209408  52.3260000 121.5259408 110.2529408  51.6880000
 121.9619408 111.5849408  52.2600000 127.4129408 116.2019408  50.0570000
 127.4249408 116.6489408  49.2110000 128.2419408 116.4469408  50.4690000
 130.8449408  92.1909408  58.1290000 129.9649408  91.9919408  57.8090000
 130.7209408  92.4099408  59.0520000 132.1609408 111.0939408  57.1720000
 131.3539408 111.5889408  57.0280000 132.4389408 111.3399408  58.0540000
 141.6459408 115.8579408  49.2480000 141.8839408 115.4889408  48.3980000
 141.1379408 115.1669408  49.6750000 121.9099408 116.0429408  56.4380000
 121.0299408 116.3809408  56.2760000 121.8099408 115.4669408  57.1960000
 146.5009408 113.4099408  33.8900000 147.2679408 113.2959408  33.3290000
 146.1529408 114.2679408  33.6490000 132.1069408 118.3369408  52.1520000
 132.8629408 118.3479408  52.7390000 131.9139408 119.2609408  51.9920000
 126.9049408 119.6589408  54.4020000 127.4049408 119.1249408  55.0190000
 127.5369408 119.8999408  53.7250000 135.8789408  92.1039408  51.6990000
 135.5149408  91.9559408  52.5720000 136.7829408  91.7959408  51.7610000
 128.8949408 111.6709408  49.8570000 128.2309408 111.5909408  49.1720000
 128.9859408 110.7849408  50.2080000 139.3409408 109.3989408  50.3370000
 139.0289408 109.1119408  49.4790000 138.5439408 109.5879408  50.8320000
 134.5349408  93.3569408  58.7370000 134.1719408  92.4879408  58.5610000
 135.0539408  93.5609408  57.9590000 137.1019408 105.7249408  55.9070000
 137.7749408 106.4049408  55.8650000 136.2939408 106.1989408  56.1020000
 133.0649408  91.5539408  50.0000000 133.9649408  91.6039408  50.3230000
 132.9399408  90.6309408  49.7800000 128.2529408  91.2669408  58.1430000
 127.5959408  91.4079408  58.8250000 128.1889408  90.3329408  57.9390000
 130.1359408 112.0139408  53.1660000 130.2959408 112.4989408  52.3560000
 130.9959408 111.9489408  53.5810000 138.4869408  98.0279408  31.6070000
 139.1999408  98.3819408  32.1380000 138.0509408  98.7999408  31.2450000
 135.1319408 107.2609408  56.3960000 135.2409408 107.6919408  57.2440000
 134.5449408 106.5269408  56.5740000 127.2789408 116.4109408  56.2950000
 126.3539408 116.2849408  56.0820000 127.7199408 116.4259408  55.4460000
 134.4529408 110.9099408  33.7780000 134.3679408 110.7669408  32.8350000
 135.0229408 110.2019408  34.0770000 127.1399408 117.5469408  47.6840000
 126.8289408 117.2759408  46.8200000 126.5409408 118.2459408  47.9460000
 145.0939408  93.0129408  55.4040000 144.7599408  92.6939408  54.5660000
 145.6369408  92.2969408  55.7340000 135.7979408 118.7229408  33.2530000
 135.6619408 117.7969408  33.0530000 135.1299408 119.1799408  32.7420000
 128.0329408 119.1679408  40.5370000 128.6119408 118.8459408  41.2270000
 127.5109408 119.8489408  40.9610000 132.8329408 106.8609408  43.8650000
 132.4649408 105.9809408  43.9370000 132.1939408 107.3459408  43.3420000
 128.4229408 118.5869408  57.7970000 128.0969408 118.0029408  57.1120000
 128.0209408 118.2599408  58.6020000 133.1219408 105.2349408  56.3590000
 132.9999408 104.2859408  56.3360000 133.2029408 105.4879408  55.4390000
 134.6709408  97.7959408  35.3550000 135.3629408  97.6749408  34.7050000
 134.3999408  96.9069408  35.5840000 130.7739408  96.2109408  59.9660000
 131.1209408  96.8889408  60.5450000 130.1539408  96.6719408  59.4000000
 144.9609408 105.1169408  36.4150000 144.0719408 105.3439408  36.1410000
 145.4919408 105.8699408  36.1570000 139.3769408  97.5459408  42.7920000
 139.5639408  97.9789408  41.9590000 138.9799408  98.2279408  43.3340000
 149.9389408 102.9329408  50.1570000 149.2409408 103.5489408  49.9330000
 149.5489408 102.0699408  50.0180000 143.4369408  98.0999408  44.6000000
 143.0629408  98.4679408  43.7990000 143.0709408  97.2169408  44.6520000
 147.4789408  93.9939408  40.6530000 147.3369408  94.2939408  39.7560000
 147.7139408  93.0699408  40.5640000 143.8419408  97.9109408  41.1330000
 143.2649408  98.4849408  40.6300000 144.5029408  97.6239408  40.5030000
 144.1399408  91.3499408  40.9420000 143.2239408  91.4689408  41.1920000
 144.1099408  90.7419408  40.2040000 142.8249408 111.8459408  59.9020000
 143.1099408 111.1609408  60.5080000 143.3979408 111.7459408  59.1420000
 139.3879408 102.0239408  31.7080000 138.4449408 102.1189408  31.5730000
 139.5609408 101.0969408  31.5410000 138.6229408  94.8899408  42.5080000
 139.1929408  94.4829408  41.8550000 138.9969408  95.7609408  42.6440000
 148.2209408 113.3229408  44.8680000 147.5639408 113.4529408  44.1850000
 149.0359408 113.1649408  44.3900000 147.7609408  92.7849408  33.9490000
 148.2159408  92.0179408  33.6010000 147.0409408  92.9349408  33.3370000
 135.8699408  97.0169408  30.6600000 135.2029408  96.8519408  31.3270000
 136.4569408  97.6569408  31.0610000 139.5339408 107.2399408  56.6460000
 140.2919408 106.8729408  56.1910000 139.5379408 106.8119408  57.5020000
 145.9399408  95.4359408  44.7680000 146.1589408  95.8389408  43.9280000
 145.7629408  94.5199408  44.5560000 145.4509408  96.9699408  35.4990000
 144.8859408  96.2069408  35.3780000 145.7639408  97.1789408  34.6180000
 134.7979408 101.2589408  50.4950000 134.1209408 101.7319408  50.0110000
 135.3779408 101.9449408  50.8280000 138.4659408 113.8039408  39.1880000
 138.8379408 114.6159408  38.8460000 138.9149408 113.1109408  38.7040000
 136.7079408  97.0059408  33.8860000 137.1969408  97.5149408  33.2390000
 136.7849408  96.0999408  33.5860000 145.2969408  95.6169408  49.7390000
 146.1719408  95.2819408  49.5430000 144.9219408  95.8239408  48.8830000
 130.5079408  97.1349408  50.9140000 131.3479408  96.7929408  50.6060000
 130.6289408  97.2549408  51.8560000 149.5329408  90.6999408  33.3760000
 150.1959408  90.7629408  32.6890000 149.1429408  89.8339408  33.2540000
 139.1209408 101.3209408  43.8360000 138.7309408 101.3989408  42.9650000
 138.7629408 102.0599408  44.3270000 143.4509408 106.6139408  47.9200000
 143.0099408 107.2459408  47.3520000 142.8429408 106.4799408  48.6470000
 121.2429408 115.3819408  41.0890000 121.8839408 114.7989408  40.6820000
 120.4409408 114.8619408  41.1370000 145.4529408 113.0009408  36.3470000
 146.1639408 112.5919408  36.8410000 145.8259408 113.1649408  35.4810000
 139.8289408 102.1619408  34.8400000 140.2879408 102.3219408  35.6640000
 139.5549408 103.0299408  34.5450000 138.0169408  97.0069408  57.2190000
 137.3259408  96.5609408  57.7080000 138.0999408  96.5049408  56.4080000
 145.5609408 101.1319408  45.4750000 145.1189408 100.5969408  46.1340000
 144.8589408 101.6419408  45.0700000 146.7429408  93.6139408  47.8620000
 146.4659408  94.0829408  47.0750000 146.0469408  92.9769408  48.0200000
 141.6259408 109.4869408  31.2030000 142.4039408 109.0829408  31.5860000
 141.3859408 110.1789408  31.8190000 139.8959408  97.7829408  59.2340000
 139.4559408  97.5179408  58.4260000 139.2739408  97.5689408  59.9280000
 149.2179408 113.7659408  35.8380000 149.3659408 114.3189408  35.0710000
 149.4309408 112.8809408  35.5410000 141.2669408  90.7559408  38.5830000
 141.3999408  91.0999408  39.4660000 140.5919408  90.0849408  38.6870000
 144.1839408  94.4299408  59.2750000 143.9199408  95.0219408  58.5710000
 143.4349408  94.4179408  59.8720000 147.0209408  90.6149408  53.3560000
 146.1119408  90.3729408  53.1770000 147.4589408  89.7839408  53.5400000
 147.0549408 110.3509408  43.5330000 146.2059408 110.0659408  43.1960000
 147.4329408 109.5649408  43.9270000 143.3629408  95.0449408  41.8150000
 143.7649408  95.8809408  41.5770000 144.1039408  94.4649408  41.9930000
 144.9759408  91.0289408  50.1130000 144.6729408  91.3969408  49.2830000
 144.4759408  91.4979408  50.7810000 142.5319408 113.9129408  46.2690000
 143.3199408 113.8259408  46.8050000 142.8589408 114.0669408  45.3830000
 146.3219408  97.4929408  53.9420000 146.3019408  96.7529408  54.5480000
 147.1049408  97.9849408  54.1900000 145.7369408 109.1459408  38.1800000
 144.8499408 109.1279408  38.5390000 146.1869408 108.4239408  38.6170000
 136.6539408  99.5689408  37.1000000 136.2859408  99.1019408  36.3490000
 137.5579408  99.2609408  37.1550000 138.3429408 115.7469408  36.0430000
 138.8659408 114.9999408  35.7510000 137.5969408 115.7659408  35.4440000
 124.7929408 115.8129408  35.2480000 124.3529408 116.6369408  35.4600000
 124.0799408 115.1949408  35.0880000 143.2419408 113.1659408  40.4920000
 142.9709408 113.7249408  39.7630000 142.5509408 112.5069408  40.5570000
 145.7379408 116.5139408  46.0000000 145.5399408 115.6189408  45.7260000
 144.8859408 116.8929408  46.2160000 140.9789408 101.3509408  58.1040000
 141.4849408 100.7389408  58.6380000 141.4719408 101.4199408  57.2860000
 144.4599408  92.0869408  47.5660000 144.6979408  92.1839408  46.6440000
 143.9199408  91.2969408  47.5930000 128.5499408  94.3989408  49.4280000
 129.1569408  94.0959408  50.1040000 127.8149408  93.7869408  49.4750000
 147.6739408  97.2299408  58.4930000 148.1929408  98.0039408  58.2730000
 147.5139408  96.7999408  57.6530000 141.2339408  91.7299408  41.0500000
 141.0569408  91.7479408  41.9900000 141.0979408  92.6329408  40.7630000
 142.1169408  96.2239408  46.4610000 141.5759408  96.8179408  46.9810000
 141.6809408  96.1839408  45.6100000 137.0459408  99.7769408  60.0950000
 136.9329408 100.7139408  60.2500000 137.3599408  99.7189408  59.1920000
 147.9949408  91.5439408  39.2960000 147.6689408  90.7739408  39.7610000
 147.5859408  91.4939408  38.4320000 141.5719408 106.0879408  49.4610000
 141.2589408 106.5549408  50.2350000 142.0279408 105.3219408  49.8100000
 144.5889408 102.8039408  48.0590000 145.3309408 102.2919408  47.7360000
 144.9889408 103.5189408  48.5550000 122.6959408  94.0899408  51.8710000
 122.3059408  93.5869408  51.1560000 122.9999408  94.8979408  51.4560000
 149.8669408 112.4849408  53.7190000 150.5199408 112.0109408  53.2050000
 149.1229408 112.5889408  53.1250000 142.9719408 119.7709408  36.6800000
 142.3179408 120.1079408  37.2920000 143.6439408 119.3789408  37.2390000
 132.1399408  97.4559408  42.2220000 133.0799408  97.4309408  42.0430000
 131.9669408  96.6499408  42.7080000 142.2569408 102.3619408  41.4830000
 141.7519408 103.1539408  41.2990000 142.2079408 101.8529408  40.6740000
 147.9939408  98.9349408  48.7130000 148.8849408  98.7869408  49.0320000
 147.4419408  98.4079408  49.2910000 145.9349408 111.0989408  58.9360000
 145.4299408 111.0179408  58.1280000 146.4369408 111.9069408  58.8260000
 147.5039408  95.9579408  42.6760000 147.6349408  95.1329408  42.2080000
 147.4329408  96.6169408  41.9850000 140.1629408  93.2489408  37.1740000
 140.7889408  92.6829408  37.6270000 139.4289408  93.3299408  37.7820000
 136.8479408 119.6619408  40.6200000 136.3209408 119.0759408  41.1630000
 136.2789408 119.8849408  39.8840000 142.0509408 117.8479408  51.3780000
 142.2919408 117.3129408  50.6220000 142.4079408 118.7149408  51.1820000
 146.0049408 118.4509408  50.5770000 145.3879408 117.8689408  50.1320000
 145.6789408 119.3319408  50.3920000 135.9519408 105.9449408  30.6750000
 135.0699408 105.6069408  30.8280000 136.3909408 105.2529408  30.1800000
 142.1649408  97.7679408  38.6350000 143.0789408  97.4839408  38.6030000
 142.1279408  98.5239408  38.0490000 144.3869408 100.8979408  37.2380000
 144.6949408 101.3449408  38.0260000 145.0989408 101.0059408  36.6070000
 140.4669408 117.5979408  46.5020000 140.0149408 118.4079408  46.7400000
 139.9129408 116.9009408  46.8520000 137.1799408 114.4859408  41.5940000
 137.1339408 114.0919408  40.7230000 137.8769408 115.1389408  41.5260000
 147.1109408  97.9229408  40.7590000 146.6699408  98.6599408  41.1820000
 147.2859408  98.2279408  39.8680000 144.4309408  98.2329408  30.1660000
 144.9999408  98.8329408  29.6840000 144.9499408  97.9689408  30.9260000
 147.6649408 107.8339408  50.4340000 147.0099408 107.9209408  51.1270000
 147.7929408 108.7259408  50.1110000 140.4459408  95.7249408  35.9510000
 140.6899408  94.9389408  36.4390000 141.2809408  96.0999408  35.6680000
 124.0989408 107.2339408  50.9040000 123.5579408 107.6299408  50.2210000
 124.7849408 107.8809408  51.0720000 143.0409408 115.6989408  37.7480000
 142.2169408 116.1149408  37.4950000 143.0589408 114.8799408  37.2530000
 130.8509408 108.0429408  50.5640000 131.5169408 107.8769408  49.8970000
 130.6929408 107.1879408  50.9640000 145.3289408 103.5029408  41.5810000
 145.0329408 104.2309408  42.1270000 146.1189408 103.1829408  42.0170000
 147.1119408 117.8559408  44.3000000 146.6299408 117.3489408  44.9530000
 148.0099408 117.8809408  44.6300000 144.7879408  92.1149408  35.8990000
 144.1839408  91.3719408  35.9120000 145.6579408  91.7159408  35.9040000
 139.4179408 105.1679408  46.0930000 140.2329408 104.6729408  46.0060000
 139.6999408 106.0539408  46.3210000 147.7659408 103.5989408  33.8470000
 147.7389408 103.8419408  34.7720000 147.9009408 104.4269408  33.3850000
 125.1689408 104.5189408  46.3780000 125.8409408 104.4369408  47.0540000
 124.4199408 104.9079408  46.8290000 142.8469408 104.3839408  59.2860000
 143.0729408 105.2939408  59.4810000 142.3399408 104.4319408  58.4760000
 144.5049408  93.7859408  38.3370000 144.6659408  93.1259408  37.6630000
 145.3689408  93.9629408  38.7110000 147.8919408 105.9599408  31.8140000
 147.0629408 105.4949408  31.6950000 148.2699408 106.0039408  30.9360000
 141.4209408  95.9589408  43.7260000 140.7449408  96.4539408  43.2630000
 142.0389408  95.6999408  43.0420000 137.9489408 107.1749408  41.2960000
 137.9059408 106.2389408  41.0990000 138.8179408 107.2979408  41.6800000
 145.4809408 101.9639408  39.4060000 145.1199408 102.5119408  40.1030000
 146.2799408 101.5939408  39.7810000 147.2379408  94.9699408  38.0610000
 147.3909408  95.8909408  38.2740000 147.5609408  94.8749408  37.1650000
 144.1389408  98.9709408  54.3760000 143.4629408  98.4299408  53.9690000
 144.9209408  98.4189408  54.3760000 136.7859408 108.4209408  31.6810000
 136.7219408 107.5299408  31.3370000 137.4129408 108.8559408  31.1040000
 142.8489408 103.5719408  49.9600000 143.5609408 103.2709408  49.3950000
 142.1069408 103.0129408  49.7290000 143.2589408  90.4689408  44.2250000
 143.7039408  89.7619408  43.7580000 143.9489408  91.1049408  44.4120000
 128.5139408 108.9249408  34.6940000 128.4449408 107.9949408  34.9100000
 127.8739408 109.0569408  33.9950000 136.2619408  95.6629408  41.8050000
 137.1559408  95.3529408  41.9450000 135.7269408  94.8699408  41.8260000
 145.2609408  92.5219408  45.1500000 146.1599408  92.1979408  45.2140000
 145.1129408  92.6349408  44.2110000 146.0369408  99.7699408  42.4210000
 146.3529408  99.1019408  43.0300000 145.0999408  99.8379408  42.6050000
 143.0209408  98.4339408  33.5050000 143.2149408  99.3699408  33.4500000
 143.4379408  98.1499408  34.3190000 138.3969408  91.7669408  34.5070000
 138.1719408  91.0319408  35.0770000 139.3529408  91.8069408  34.5340000
 147.9889408  99.2129408  55.4190000 148.5799408  99.2639408  56.1700000
 147.4759408 100.0199408  55.4620000 149.4079408 110.4649408  42.4830000
 148.5159408 110.4729408  42.8300000 149.2959408 110.4509408  41.5330000
 139.9099408  98.3669408  40.0660000 139.9099408  99.2509408  39.6990000
 140.6139408  97.9149408  39.6030000 142.6919408 101.3699408  56.1520000
 142.7639408 100.5559408  55.6530000 143.5839408 101.5479408  56.4510000
 142.3429408 107.8229408  43.7280000 142.4789408 108.5569408  44.3260000
 141.4959408 107.9999408  43.3180000 138.5539408 108.9259408  54.6820000
 138.7939408 108.2999408  55.3660000 139.3529408 109.4279408  54.5250000
 138.5449408  96.2349408  38.9460000 138.6869408  96.3049408  38.0020000
 138.8589408  97.0669408  39.2990000 143.0879408  96.0449408  32.2860000
 143.1179408  96.9629408  32.5550000 142.5769408  96.0479408  31.4770000
 139.4299408 119.0179408  30.8690000 140.3869408 119.0099408  30.8630000
 139.1899408 118.4979408  31.6360000 143.0929408  94.5809408  56.6170000
 143.7929408  94.1529408  56.1250000 142.4559408  94.8409408  55.9520000
 149.4029408 111.3029408  46.8030000 149.1189408 112.1149408  46.3830000
 150.2919408 111.4879408  47.1050000 146.0629408  96.2019408  32.8730000
 146.7759408  96.4759408  32.2960000 145.4759408  95.7009408  32.3070000
 145.4119408 110.8149408  31.5320000 145.4999408 110.9999408  30.5970000
 146.2239408 110.3649408  31.7650000 148.3659408  95.4669408  49.3010000
 148.8039408  95.9929408  48.6320000 148.0599408  94.6899408  48.8330000
 133.7059408  90.8079408  58.7940000 132.8089408  90.6749408  59.0990000
 134.2449408  90.6919408  59.5770000 140.9419408  94.3839408  47.7550000
 140.5819408  93.9059408  47.0080000 141.5239408  95.0359408  47.3640000
 139.5519408 103.4549408  59.3200000 139.6209408 102.9329408  60.1200000
 139.9389408 102.9039408  58.6400000 149.4049408  99.7769408  31.2160000
 149.7829408  99.6169408  30.3520000 148.8879408  98.9919408  31.4010000
 143.8139408 106.7889408  59.7140000 143.7769408 107.3819408  60.4640000
 144.6549408 106.9789408  59.2980000 122.6029408 106.3849408  57.6050000
 122.3689408 106.0419408  56.7430000 123.5349408 106.1849408  57.6980000
 141.4199408 103.2069408  54.2540000 141.6209408 102.3409408  54.6100000
 141.2789408 103.0559408  53.3200000 144.3839408 106.4509408  56.5200000
 144.4989408 107.3369408  56.1780000 144.0379408 106.5779408  57.4040000
 149.1759408 100.3779408  52.4850000 148.2839408 100.5879408  52.2080000
 149.0939408 100.1619408  53.4140000 147.5159408 101.6489408  48.8270000
 147.5849408 100.6959408  48.7670000 147.6049408 101.8379408  49.7610000
 148.1189408 103.0759408  53.9840000 148.7619408 102.6759408  54.5710000
 147.4529408 103.4369408  54.5690000 120.9759408 103.9229408  56.7960000
 121.2779408 104.0099408  57.7000000 121.7439408 103.6149408  56.3150000
 144.1129408  91.7349408  58.1150000 144.7809408  91.4299408  57.5010000
 144.4059408  92.6089408  58.3730000 141.7639408 103.3609408  32.3840000
 141.7739408 103.7069408  31.4920000 140.9559408 102.8499408  32.4340000
 120.6829408  94.4809408  56.5800000 120.8219408  94.3349408  55.6450000
 120.8769408  95.4089408  56.7100000 148.0309408 115.7699408  30.2010000
 147.6519408 116.3839408  29.5710000 148.7909408 116.2309408  30.5560000
 122.9169408 100.2559408  52.9200000 122.3259408 100.8239408  52.4250000
 123.4999408 100.8599408  53.3800000 141.1939408  94.9999408  54.4080000
 140.3499408  95.2639408  54.7730000 141.2559408  94.0639408  54.5980000
 146.5439408  95.5789408  55.9390000 145.8209408  94.9659408  55.8060000
 147.3229408  95.0939408  55.6660000 148.7599408 118.1839408  33.0480000
 148.8759408 117.2849408  33.3560000 149.4779408 118.3219408  32.4310000
 122.6489408  97.0719408  53.3300000 122.9159408  97.8839408  52.8980000
 122.1039408  96.6239408  52.6820000 142.4329408 114.4709408  30.8190000
 141.6569408 114.3989408  31.3750000 142.5059408 113.6149408  30.3970000
 147.0089408  97.7539408  50.9100000 147.1639408  97.5669408  51.8360000
 146.1749408  97.3249408  50.7160000 123.2349408 108.6979408  54.7910000
 122.6099408 107.9739408  54.8150000 124.0829408 108.2909408  54.9680000
 125.1829408 105.2449408  58.7310000 125.2499408 104.6459408  57.9880000
 126.0909408 105.4169408  58.9820000 139.5569408 109.2589408  34.7920000
 139.8279408 108.5009408  34.2750000 139.5719408 109.9889408  34.1730000
 146.9399408 100.5709408  35.5480000 147.2969408 101.4359408  35.7460000
 147.5429408 100.2049408  34.9000000 142.1869408  97.3489408  53.2340000
 142.6329408  97.2299408  52.3960000 141.9849408  96.4599408  53.5270000
 143.0549408 116.8219408  45.9560000 142.1179408 116.8199408  46.1500000
 143.1779408 116.0819408  45.3610000 146.0829408 104.9759408  52.9120000
 146.8299408 104.5689408  52.4730000 146.1679408 104.7089408  53.8270000
 146.7119408 118.8939408  31.2240000 147.5319408 118.5429408  31.5710000
 146.3319408 119.3829408  31.9540000 144.2559408 113.5429408  48.3680000
 144.2759408 112.7569408  48.9150000 145.1489408 113.6239408  48.0320000
 147.4089408 118.0439408  58.3580000 146.8659408 118.5749408  58.9420000
 148.0689408 118.6529408  58.0260000 126.1619408 111.5309408  55.3790000
 126.6229408 112.3089408  55.0660000 126.8009408 110.8229408  55.2930000
 144.1759408 108.5089408  31.7660000 144.5339408 109.3739408  31.5650000
 144.8279408 108.1069408  32.3410000 145.2449408 105.1359408  49.2390000
 144.6809408 105.3399408  49.9860000 145.0279408 105.8009408  48.5860000
 147.8889408  92.9389408  30.7890000 147.1389408  92.3659408  30.9500000
 147.5709408  93.8159408  31.0000000 137.5889408  95.9449408  51.8650000
 137.9269408  95.0509408  51.9150000 138.2399408  96.4199408  51.3480000
 138.6329408  93.7929408  57.6990000 139.4459408  93.2949408  57.6140000
 138.5859408  94.0199408  58.6280000 149.2179408 101.7099408  56.2810000
 149.3859408 101.1539408  57.0420000 149.5759408 102.5639408  56.5240000
 140.0679408  96.6019408  50.6770000 140.4109408  95.7399408  50.4420000
 140.8469408  97.1369408  50.8290000 149.4139408  93.1659408  46.0720000
 149.2369408  92.3849408  46.5970000 148.9069408  93.8589408  46.4960000
 146.1419408 102.3979408  57.6270000 145.4329408 102.2329408  58.2480000
 146.9029408 102.5879408  58.1750000 137.8799408  97.6249408  54.1220000
 137.7579408  96.6759408  54.0920000 137.0159408  97.9709408  54.3480000
 141.5639408 105.6829408  55.4200000 142.2419408 105.5029408  56.0710000
 141.3869408 104.8329408  55.0160000 149.8499408  92.5939408  58.7080000
 149.3119408  92.9239408  59.4270000 149.7199408  93.2259408  58.0010000
 144.0009408  94.7069408  35.0710000 143.8849408  94.5229408  34.1390000
 144.2479408  93.8649408  35.4530000 148.6979408  94.9809408  53.9730000
 149.2289408  95.6649408  54.3820000 149.2709408  94.2149408  53.9480000
 122.5169408  93.7909408  58.9940000 122.3399408  94.7299408  59.0370000
 122.0049408  93.4829408  58.2460000 129.8899408 101.8059408  47.1790000
 130.2009408 101.2239408  47.8720000 130.1229408 101.3559408  46.3660000
 122.2539408 105.9619408  54.7120000 121.4929408 105.4689408  54.4070000
 123.0069408 105.4519408  54.4130000 140.1359408 106.2199408  58.9780000
 139.9219408 105.3049408  58.7990000 140.5769408 106.2019408  59.8280000
 140.0029408  99.2039408  53.4090000 140.8009408  98.6759408  53.4560000
 139.3039408  98.6049408  53.6730000 143.6059408 102.7209408  44.1930000
 143.3069408 102.6279408  43.2890000 143.8659408 103.6389408  44.2670000
 141.9269408 108.4589408  57.4240000 141.6859408 109.2179408  57.9550000
 141.2059408 107.8409408  57.5460000 140.6599408 110.6539408  58.5530000
 140.8069408 110.9329408  59.4560000 140.5649408 111.4699408  58.0610000
 143.0969408  97.0939408  50.7320000 143.5719408  97.7899408  50.2780000
 143.5829408  96.2959408  50.5220000 141.2829408  94.2129408  40.2370000
 142.1709408  94.4309408  40.5200000 140.9569408  95.0169408  39.8310000
 145.8779408 104.2189408  55.3820000 145.9199408 103.5969408  56.1090000
 145.3539408 104.9449408  55.7190000 146.9689408 116.1229408  52.1750000
 147.8909408 116.2139408  52.4190000 146.8059408 116.8519408  51.5770000
 142.0069408 103.9469408  46.1180000 142.6479408 103.3789408  45.6900000
 142.4899408 104.3509408  46.8390000 141.3509408 113.5839408  57.1550000
 142.0519408 114.1379408  56.8110000 140.8199408 114.1729408  57.6900000
 144.1139408  93.7159408  51.1230000 144.5879408  94.4759408  50.7840000
 144.5419408  93.5189408  51.9560000 119.8739408  99.2279408  57.4500000
 120.4399408  99.4969408  56.7260000 120.4529408  98.7489408  58.0430000
 133.7419408  96.4529408  45.6390000 134.2449408  96.8479408  44.9270000
 133.4279408  97.1979408  46.1520000 148.1879408 102.5169408  59.3490000
 149.0379408 102.9559408  59.3450000 148.2049408 101.9679408  60.1330000
 123.9139408 104.3159408  50.0960000 123.3239408 105.0459408  50.2810000
 123.8699408 104.2069408  49.1460000 139.3529408  99.0949408  49.9650000
 138.9699408  99.8979408  50.3180000 139.1119408  98.4159408  50.5960000
 125.4609408 104.3169408  56.1370000 124.8509408 103.6819408  55.7600000
 126.2679408 103.8219408  56.2740000 126.1759408  93.6459408  53.8610000
 127.0319408  93.4339408  54.2340000 125.6269408  93.8449408  54.6190000
 120.6509408 104.1239408  53.5250000 119.7119408 103.9479408  53.5810000
 120.9809408 103.4709408  52.9080000 122.0539408 102.5049408  51.6720000
 122.7779408 103.0489408  51.3630000 121.3189408 102.7389408  51.1060000
 147.4739408  98.2959408  37.3770000 147.0789408  99.0559408  36.9490000
 147.4529408  97.6089408  36.7110000 134.3679408  98.5949408  50.4910000
 134.4269408  99.5469408  50.5680000 134.3979408  98.4279408  49.5490000
 122.4339408 119.4479408  51.3220000 121.7669408 118.7629408  51.3040000
 122.1439408 120.0829408  50.6670000 139.6399408 107.0629408  51.6660000
 140.2749408 107.2579408  52.3550000 139.4069408 107.9179408  51.3040000
 147.1349408 102.3819408  51.4320000 146.3539408 101.8949408  51.6950000
 147.7049408 102.3559408  52.2000000 142.3099408 100.3559408  51.7640000
 141.7209408 101.1059408  51.6740000 141.7629408  99.6659408  52.1410000
 148.6129408 110.5529408  50.3810000 149.2029408 110.8629408  51.0670000
 148.5069408 111.3039408  49.7970000 138.5159408 115.7009408  30.7170000
 138.6129408 116.6029408  31.0230000 139.1969408 115.5999408  30.0510000
 144.3199408 105.3179408  43.4330000 143.7379408 106.0469408  43.2200000
 144.8819408 105.6559408  44.1310000 142.5469408 105.5769408  34.2880000
 141.8889408 106.0879408  33.8160000 142.4899408 104.7009408  33.9070000
 139.5539408  90.0589408  47.2370000 139.8519408  90.3489408  46.3750000
 138.6799408  90.4369408  47.3290000 144.5779408 116.1839408  49.7680000
 145.3119408 115.7339408  49.3490000 143.8019408 115.8429408  49.3220000
 141.9709408 119.7309408  34.2900000 141.4919408 120.5529408  34.3860000
 142.2929408 119.5359408  35.1700000 139.7779408 113.9979408  43.5600000
 140.2779408 114.1409408  42.7560000 140.3799408 113.5269408  44.1360000
 136.2369408  92.5929408  37.0360000 136.4979408  91.7169408  36.7530000
 137.0569408  93.0199408  37.2820000 137.8549408  93.6489408  38.8230000
 138.0219408  94.5789408  38.9790000 137.6949408  93.2839408  39.6930000
 140.3289408 114.1079408  32.8240000 139.6049408 114.5969408  32.4350000
 140.2499408 114.2699408  33.7640000 141.6989408  90.0119408  49.4060000
 142.3109408  89.7979408  48.7010000 140.9559408  90.4209408  48.9620000
 147.1489408 111.4149408  38.1260000 147.0169408 111.9989408  38.8730000
 146.3659408 110.8649408  38.1090000 141.1139408  92.1109408  34.7390000
 141.1109408  92.6599408  35.5240000 141.5609408  92.6399408  34.0780000
 142.0079408 100.1399408  46.2200000 141.9829408 100.3189408  45.2790000
 142.8879408  99.7949408  46.3750000 136.6089408 108.0909408  43.3550000
 136.7289408 107.5009408  42.6110000 137.4469408 108.5439408  43.4390000
 147.8639408 107.4319408  39.3610000 147.7469408 107.2979408  40.3010000
 148.3079408 108.2779408  39.2930000 121.0329408 115.6039408  43.9710000
 120.2089408 115.2399408  44.2930000 121.2309408 115.0919408  43.1870000
 121.9339408 119.6879408  48.6420000 122.2469408 118.7839408  48.6550000
 121.5109408 119.7829408  47.7880000 122.0799408 118.3339408  33.5080000
 121.6479408 118.7749408  32.7770000 122.4669408 119.0439408  34.0210000
 137.4589408 109.6149408  36.9330000 136.5709408 109.2699408  37.0270000
 137.7209408 109.3639408  36.0470000 145.5019408 115.3549408  58.7860000
 146.3499408 114.9159408  58.7100000 145.0439408 115.1329408  57.9750000
 146.6749408 107.5639408  43.5590000 146.2789408 107.7839408  44.4030000
 146.8119408 106.6169408  43.5990000 139.9319408 113.5469408  35.4520000
 139.4589408 112.7149408  35.4690000 140.8459408 113.3059408  35.6030000
 143.0439408 111.6259408  43.4910000 142.5689408 111.6099408  42.6600000
 143.9519408 111.4399408  43.2520000 141.5259408 117.0239408  33.9340000
 141.8329408 116.7029408  33.0860000 141.8009408 117.9409408  33.9570000
 142.5659408 113.1829408  36.2490000 142.5139408 112.3989408  36.7960000
 143.4839408 113.2299408  35.9820000 122.7359408 113.2419408  51.7040000
 122.8889408 113.6109408  50.8350000 122.5469408 113.9999408  52.2570000
 145.2289408  93.2469408  42.4100000 144.8559408  92.6399408  41.7710000
 146.0849408  93.4789408  42.0500000 123.0529408 116.7679408  45.5720000
 122.4119408 116.2939408  45.0430000 123.1159408 117.6289408  45.1590000
 144.1119408 111.8259408  33.7350000 144.7569408 112.4489408  34.0690000
 144.4369408 111.5849408  32.8680000 145.3229408 106.5199408  33.7300000
 145.4299408 105.8639408  33.0410000 144.4889408 106.2979408  34.1450000
 121.2079408 114.3789408  58.9760000 120.7519408 113.5889408  59.2650000
 122.1189408 114.1049408  58.8680000 145.6729408 110.8899408  53.2500000
 145.9379408 111.6929408  52.8020000 145.0279408 110.4909408  52.6670000
 148.0719408 105.0429408  44.1250000 148.3279408 104.1539408  43.8810000
 148.7059408 105.6059408  43.6790000 141.4969408 107.6769408  38.9910000
 140.6869408 107.9649408  39.4120000 141.2069408 107.1699408  38.2330000
 141.3089408 111.2979408  40.9070000 140.3719408 111.3809408  41.0840000
 141.3559408 110.9219408  40.0280000 139.9409408 115.9629408  58.3800000
 139.0549408 116.3189408  58.3170000 140.3819408 116.2749408  57.5900000
 142.7679408 109.3119408  47.3790000 142.3009408 110.0629408  47.0110000
 143.4259408 109.6989408  47.9570000 139.7129408 111.5399408  37.5910000
 139.1179408 110.8719408  37.2500000 140.5109408 111.0599408  37.8100000
 143.7039408 107.7479408  40.5130000 144.1529408 106.9339408  40.2860000
 142.9529408 107.7799408  39.9200000 147.4709408 115.8359408  36.5070000
 147.7579408 114.9329408  36.6370000 147.3959408 115.9299408  35.5570000
 147.1539408 115.2229408  48.8610000 147.2309408 114.5909408  48.1470000
 147.9429408 115.7599408  48.7930000 148.9979408 105.2499408  47.3840000
 148.6679408 105.0439408  48.2580000 148.5579408 104.6249408  46.8080000
 137.0249408 112.7099408  47.6690000 136.8809408 112.0149408  47.0260000
 136.7759408 113.5139408  47.2140000 145.5159408  92.1409408  32.2740000
 144.6969408  92.6339408  32.2290000 145.2789408  91.3189408  32.7030000
 147.8379408 106.4779408  34.9610000 147.1649408 106.4449408  34.2810000
 148.2269408 107.3489408  34.8720000 138.1619408 101.4479408  48.1310000
 138.1129408 101.6889408  49.0560000 139.0279408 101.7449408  47.8520000
 131.7949408  94.1809408  45.4660000 131.0579408  94.3869408  46.0420000
 132.4969408  94.7619408  45.7580000 144.6279408 119.7129408  33.2650000
 143.6809408 119.5999408  33.3410000 144.9819408 119.3039408  34.0550000
 144.1549408 118.4689408  38.6710000 144.9869408 117.9959408  38.6860000
 143.5239408 117.8559408  39.0480000 147.6299408 118.3429408  37.5860000
 147.5669408 117.3909408  37.5050000 147.5549408 118.5079408  38.5260000
 146.7179408 113.2369408  47.1170000 147.0469408 113.5299408  46.2670000
 146.4409408 112.3329408  46.9690000 148.6429408 113.4169408  32.1320000
 149.5469408 113.7219408  32.2000000 148.2299408 114.0239408  31.5180000
 138.1019408 119.3339408  43.8490000 138.8249408 119.9569408  43.9170000
 138.5209408 118.5029408  43.6270000 120.8829408 105.8929408  50.9960000
 121.0199408 105.6469408  51.9110000 120.0429408 105.4959408  50.7640000
 149.7119408 117.0349408  48.1520000 149.5509408 117.4989408  47.3300000
 149.2639408 117.5589408  48.8150000 127.1339408 113.6299408  47.5170000
 126.9599408 114.4419408  47.0430000 127.4829408 113.0339408  46.8540000
 124.8129408 110.6049408  50.3340000 124.8989408 111.5329408  50.5520000
 124.8869408 110.1529408  51.1740000 145.3029408 116.0099408  41.7730000
 145.0519408 115.5969408  40.9470000 144.6769408 116.7259408  41.8830000
 135.4609408 113.4619408  33.0360000 135.9439408 113.2799408  32.2300000
 135.3659408 112.6069408  33.4560000 133.5109408 117.9189408  45.3630000
 134.4469408 117.8499408  45.5500000 133.2639408 117.0499408  45.0470000
 145.1669408 115.1589408  31.8110000 144.2559408 114.8679408  31.8270000
 145.3879408 115.2049408  30.8810000 141.1539408 117.1659408  36.5480000
 141.4189408 116.9389408  35.6570000 141.5359408 118.0299408  36.7000000
 137.0539408 116.8609408  58.2050000 136.3929408 117.1089408  58.8510000
 136.5519408 116.4939408  57.4770000 136.0469408  94.5639408  45.7710000
 136.0809408  94.5099408  46.7260000 135.4529408  95.2939408  45.5940000
 122.8799408 117.4629408  42.2670000 122.0239408 117.0379408  42.2150000
 123.2679408 117.3299408  41.4030000 148.6919408 109.2009408  33.8620000
 149.5599408 108.8229408  33.7170000 148.1619408 108.8679408  33.1380000
 147.3199408 108.8899408  31.5420000 147.8129408 109.1749408  30.7720000
 147.3469408 107.9339408  31.5040000 120.1709408 115.8719408  33.6420000
 120.6029408 115.3299408  32.9810000 120.8439408 116.4929408  33.9200000
 141.9069408 110.2649408  38.2860000 141.7919408 109.3209408  38.3890000
 142.4119408 110.3589408  37.4790000 140.8209408 115.7819408  41.5460000
 140.6039408 115.9449408  40.6280000 140.7959408 116.6459408  41.9560000
 147.3569408  91.1799408  36.2670000 147.6309408  91.6629408  35.4870000
 148.0139408  90.4909408  36.3660000 138.4929408 110.8929408  41.3400000
 138.2899408 110.2629408  40.6490000 137.8709408 111.6069408  41.2050000
 147.5929408 118.9229408  40.4380000 147.4519408 119.3709408  41.2720000
 148.5019408 118.6269408  40.4740000 129.8979408 118.3239408  47.5680000
 130.5479408 117.6229408  47.5210000 129.0609408 117.8869408  47.4100000
 120.6229408 115.0849408  49.8260000 121.5509408 114.8679408  49.9130000
 120.5909408 115.7159408  49.1080000 132.2699408 106.4249408  58.7760000
 132.9509408 107.0969408  58.8060000 132.4539408 105.9319408  57.9760000
 149.5049408  99.6089408  33.9390000 149.2369408  99.4409408  33.0360000
 150.3389408  99.1489408  34.0320000 144.9399408 118.5519408  42.8940000
 145.6679408 118.0659408  43.2810000 145.3499408 119.3119408  42.4820000
 146.2609408 110.5759408  46.5330000 145.9599408 109.7359408  46.1870000
 147.1519408 110.4039408  46.8380000 120.9209408 119.9589408  39.9480000
 121.4189408 119.3979408  39.3520000 120.0779408 120.0829408  39.5120000
 140.1059408 116.3139408  38.9570000 140.3829408 116.3689408  38.0430000
 139.8789408 117.2129408  39.1940000 143.6379408 119.1839408  57.3740000
 143.8629408 118.6559408  58.1400000 143.7149408 120.0889408  57.6760000
 137.8029408  91.4979408  32.0150000 137.8179408  91.3079408  32.9530000
 137.9959408  90.6579408  31.5970000 141.2849408 111.4409408  33.2030000
 142.1909408 111.6019408  33.4660000 140.9289408 112.3109408  33.0260000
 144.8339408 108.1349408  45.5300000 145.1179408 107.2749408  45.8380000
 144.2629408 108.4619408  46.2250000 145.9399408 113.0769408  40.1740000
 145.0409408 112.8989408  40.4490000 145.8779408 113.8789408  39.6550000
 127.8459408  94.6539408  58.8310000 128.2209408  94.7389408  59.7070000
 127.3629408  93.8279408  58.8550000 120.5509408 113.0329408  38.3860000
 120.1859408 113.4379408  37.6000000 119.8569408 113.1109408  39.0410000
 141.0919408  92.8469408  57.7180000 141.6289408  92.2659408  58.2570000
 141.7059408  93.5029408  57.3870000 139.0939408 115.2559408  47.6310000
 138.8449408 115.5209408  48.5160000 138.5189408 114.5169408  47.4310000
 144.6889408 116.4959408  53.9890000 145.4609408 116.4079408  53.4300000
 144.0209408 115.9579408  53.5630000 139.7889408 117.3129408  53.2930000
 140.5389408 117.1429408  52.7230000 139.6029408 118.2449408  53.1720000
 146.0789408 118.6559408  35.3270000 146.5179408 118.9459408  36.1270000
 146.5309408 117.8469408  35.0860000 141.9989408 117.5469408  31.0180000
 142.9239408 117.6119408  30.7810000 141.7279408 116.6889408  30.6910000
 137.6129408 110.7449408  33.2240000 137.4149408 109.8939408  32.8320000
 137.7729408 111.3209408  32.4770000 148.7029408 113.2359408  50.3090000
 149.5569408 113.6369408  50.1500000 148.0819408 113.8059408  49.8540000
 139.1839408 112.3919408  49.3730000 138.8759408 112.0519408  50.2130000
 138.3959408 112.4469408  48.8330000 148.9259408 109.3549408  59.1130000
 148.4939408 109.0299408  58.3230000 149.7449408 108.8629408  59.1590000
 142.4529408 112.8319408  54.3870000 143.2899408 113.2969408  54.4070000
 141.9209408 113.3219408  53.7600000 149.3329408 110.1069408  39.6110000
 150.1389408 110.5079408  39.2850000 148.7129408 110.1949408  38.8870000
 149.7389408  91.2499408  52.7270000 149.9719408  90.5979408  52.0660000
 148.7969408  91.1349408  52.8560000 134.6139408 114.3099408  58.8680000
 133.7559408 114.7329408  58.8890000 135.0889408 114.7639408  58.1720000
 121.4839408 110.5129408  56.1210000 121.9909408 109.8839408  55.6070000
 120.8779408 110.9039408  55.4910000 146.4009408 100.1289408  59.6700000
 146.3809408 100.6799408  60.4520000 146.2529408 100.7369408  58.9450000
 149.0999408 116.4319408  55.9860000 148.5239408 116.4859408  56.7480000
 148.5919408 115.9469408  55.3350000 147.4289408 114.6289408  54.5640000
 146.6139408 114.5409408  54.0710000 147.3679408 113.9629408  55.2490000
 146.4519408 108.2429408  53.9800000 146.5979408 109.0739408  53.5290000
 145.5169408 108.0689408  53.8690000 146.6279408  95.1689408  60.1560000
 145.8039408  94.7719408  59.8740000 146.6229408  96.0389408  59.7570000
 122.8429408 115.7119408  53.1490000 123.7689408 115.4969408  53.0340000
 122.8479408 116.5679408  53.5780000 143.8769408 111.7659408  57.1800000
 144.5629408 112.2469408  56.7180000 143.0929408 112.3049408  57.0720000
 148.0669408 105.0089408  50.1910000 148.0739408 105.9439408  49.9830000
 147.1889408 104.8459408  50.5340000 146.0639408 107.5379408  58.8710000
 146.7539408 106.9079408  58.6660000 146.4249408 108.3839408  58.6060000
 149.9059408 118.0329408  51.8660000 149.3759408 118.3819408  52.5830000
 150.0419408 117.1129408  52.0930000 147.5559408 113.3009408  58.4550000
 148.1949408 113.8009408  58.9620000 148.0589408 112.9369408  57.7270000
 147.8099408 107.9179408  56.6380000 147.3599408 108.3039408  55.8870000
 147.8709408 106.9859408  56.4280000 140.8229408 110.4389408  54.5460000
 141.4419408 111.1659408  54.6110000 140.8099408 110.2179408  53.6140000
 146.1169408  90.6769408  56.5390000 145.8869408  90.0879408  55.8210000
 146.9099408  90.2969408  56.9170000 144.0979408 102.2559408  59.3850000
 143.7049408 103.1289408  59.3770000 143.3609408 101.6629408  59.5350000
 149.0779408 112.0099408  56.4940000 149.7929408 111.5059408  56.8830000
 149.4689408 112.4279408  55.7270000 146.4579408 112.1029408  55.8250000
 147.2999408 111.6859408  56.0080000 146.1359408 111.6579408  55.0400000
 144.2699408 119.2149408  54.6630000 144.2869408 118.9489408  55.5820000
 144.4699408 118.4149408  54.1780000 139.3969408 112.8279408  55.2380000
 139.5079408 112.1059408  54.6190000 140.1119408 112.7199408  55.8640000
 140.7379408  93.9019408  50.2470000 140.8629408  93.9519408  49.3000000
 141.6089408  94.0529408  50.6130000 149.0199408 118.8129408  54.3330000
 149.8619408 119.1639408  54.6250000 148.8459408 118.0819408  54.9260000
 136.8359408  91.2099408  57.0900000 137.4759408  90.5949408  57.4500000
 137.1229408  92.0669408  57.4050000 146.1579408 116.4039408  33.9090000
 145.6669408 117.2129408  34.0520000 145.8099408 116.0549408  33.0890000
 137.0399408 118.4119408  54.8180000 137.5809408 118.5059408  55.6020000
 137.1749408 117.5059408  54.5410000 143.6199408 114.9529408  52.0760000
 142.8519408 114.5989408  51.6270000 144.1499408 115.3379408  51.3780000
 141.2529408 113.5169408  50.7880000 140.5179408 113.0819408  50.3570000
 140.8559408 113.9929408  51.5170000 123.1729408 119.6979408  53.8650000
 122.8949408 119.4999408  52.9710000 123.6089408 120.5479408  53.7990000
 144.4219408  99.4159408  50.1160000 145.2529408  99.6309408  50.5400000
 143.7539408  99.7569408  50.7110000 122.7039408 111.1609408  30.5350000
 121.8629408 111.6189408  30.5440000 122.8899408 111.0209408  29.6060000
 138.5739408 116.5729408  49.9790000 139.3969408 117.0059408  50.2050000
 137.9349408 116.9379408  50.5900000 143.9579408  91.6669408  53.3620000
 143.0839408  91.9459408  53.6370000 144.0009408  90.7409408  53.6010000
 148.8059408 106.1259408  59.0390000 149.4149408 106.8549408  58.9240000
 149.3669408 105.3549408  59.1220000 143.5929408 110.4459408  36.1030000
 144.4549408 110.0469408  36.2220000 143.6239408 110.8299408  35.2270000
 141.0189408 111.9559408  47.3460000 140.6409408 112.0609408  48.2200000
 141.4569408 112.7889408  47.1720000 149.3579408  96.4659408  51.7420000
 148.9689408  96.1709408  50.9190000 149.0259408  95.8529408  52.3980000
 125.0389408 110.2599408  53.3180000 125.4329408 110.8059408  53.9980000
 124.2329408 109.9279408  53.7140000 144.5659408 117.9129408  59.5880000
 144.9279408 117.0679408  59.3220000 145.1819408 118.2429408  60.2420000
 142.3159408  90.6029408  30.0200000 142.8489408  90.3259408  30.7650000
 142.9519408  90.8169408  29.3370000 136.0279408 119.2599408  48.5900000
 135.0909408 119.1729408  48.4130000 136.1359408 118.9249408  49.4800000
 140.3859408 114.2079408  53.2040000 140.0829408 115.1069408  53.3300000
 139.8389408 113.6859408  53.7910000 124.5629408 115.8619408  55.9740000
 123.6279408 116.0279408  56.0910000 124.7009408 114.9909408  56.3480000
 130.0009408 116.2329408  51.9690000 130.8279408 115.7619408  52.0740000
 130.2609408 117.1449408  51.8330000 133.1139408 119.2469408  48.1040000
 133.4209408 118.6579408  47.4150000 132.3449408 119.6749408  47.7280000
 124.1209408 103.6749408  73.7610000 124.0209408 104.4239408  74.3480000
 124.6659408 103.0579408  74.2490000 139.4019408 107.0039408  63.4620000
 139.3069408 106.1259408  63.8320000 138.6369408 107.1089408  62.8970000
 126.9639408 117.2739408  64.1330000 126.2589408 116.7169408  64.4630000
 126.9889408 118.0129408  64.7410000 141.1249408  91.1489408  81.7350000
 140.9649408  90.2999408  81.3230000 141.6349408  91.6379408  81.0890000
 126.7109408 108.7099408  81.4700000 126.3839408 109.3649408  82.0880000
 127.6529408 108.8729408  81.4250000 131.8849408 101.9679408  72.0810000
 131.2899408 101.2449408  72.2800000 132.7569408 101.5759408  72.1090000
 125.8789408  96.9689408  68.7010000 125.4139408  96.1719408  68.4480000
 125.9029408  97.4959408  67.9020000 135.1049408 107.8279408  75.6050000
 134.2939408 107.6459408  75.1300000 135.7899408 107.7719408  74.9380000
 120.6359408 104.0729408  68.5360000 119.8129408 104.3929408  68.1640000
 120.9089408 103.3719408  67.9450000 138.8559408 108.6129408  69.2840000
 138.4689408 108.1719408  70.0410000 138.1489408 109.1559408  68.9360000
 129.0639408  98.6819408  77.8260000 128.4579408  98.2489408  78.4280000
 129.3939408  97.9759408  77.2700000 131.2259408 101.3479408  65.7040000
 130.6419408 101.7979408  66.3140000 131.6789408 100.6969408  66.2400000
 137.4669408 105.2269408  77.9080000 137.9479408 105.1439408  78.7320000
 138.1319408 105.1079408  77.2300000 142.0799408  99.5039408  66.3360000
 141.9909408  99.7379408  65.4120000 142.7389408 100.1109408  66.6740000
 125.6149408 103.6859408  68.9500000 125.7649408 103.7169408  69.8950000
 124.7539408 104.0859408  68.8300000 149.3079408 108.9599408  75.2020000
 149.6479408 109.5329408  75.8900000 149.8979408 109.0979408  74.4610000
 132.9309408 115.5519408  74.1980000 133.8639408 115.3599408  74.1090000
 132.5239408 115.1209408  73.4470000 148.0369408  95.5629408  65.5490000
 147.0969408  95.6829408  65.4130000 148.2159408  94.6789408  65.2300000
 138.3629408 111.3589408  60.6810000 137.7089408 112.0489408  60.5670000
 138.2789408 110.8169408  59.8970000 130.6849408 105.9839408  66.6650000
 131.1339408 106.8249408  66.7490000 129.8769408 106.0929408  67.1670000
 148.7999408  99.9389408  75.7730000 147.8609408  99.9999408  75.5990000
 148.8569408  99.5959408  76.6650000 122.3889408 110.7699408  63.8460000
 123.1819408 111.3059408  63.8470000 122.6729408 109.9199408  64.1820000
 137.9779408 104.4559408  70.6650000 137.2519408 104.3639408  70.0480000
 137.7039408 103.9559408  71.4340000 133.5299408 104.6779408  60.5350000
 132.9009408 103.9769408  60.7060000 133.0779408 105.2629408  59.9270000
 136.9329408 112.0279408  73.3670000 137.2779408 112.9039408  73.1980000
 137.6629408 111.4399408  73.1730000 131.7599408 113.1179408  68.5430000
 131.6899408 113.8819408  67.9720000 132.0759408 112.4179408  67.9710000
 134.5309408 116.0489408  61.8910000 135.1549408 116.0429408  61.1650000
 134.9719408 115.5639408  62.5890000 121.5889408  97.8679408  65.1380000
 121.9129408  97.0799408  64.7030000 122.3749408  98.2939408  65.4810000
 124.3779408  91.6949408  76.6380000 123.4469408  91.8319408  76.4640000
 124.7679408  91.5709408  75.7730000 131.0189408  92.1809408  78.1460000
 130.7569408  93.1019408  78.1390000 131.6919408  92.1279408  78.8240000
 135.1549408  90.6799408  68.8720000 134.7649408  91.4279408  68.4200000
 135.0899408  89.9599408  68.2450000 135.4189408 104.0349408  73.0950000
 134.8099408 103.9809408  73.8320000 134.8679408 104.2559408  72.3440000
 126.8749408 116.9259408  69.7580000 127.0919408 117.8089408  70.0560000
 127.0169408 116.9499408  68.8120000 148.5349408 105.5709408  67.6430000
 148.4489408 106.1489408  66.8850000 148.1879408 106.0809408  68.3750000
 128.3539408  96.3839408  63.5020000 129.0179408  96.9059408  63.0520000
 127.9879408  96.9769408  64.1590000 144.3849408  99.4109408  77.3650000
 144.7209408  98.5179408  77.2950000 144.2909408  99.5589408  78.3060000
 127.7939408 103.7699408  67.0920000 127.1589408 103.5089408  67.7590000
 128.3649408 103.0079408  66.9930000 129.0859408  92.8069408  72.3010000
 129.2659408  93.2629408  71.4790000 129.7729408  93.1059408  72.8980000
 135.8509408 103.9929408  69.0110000 135.1649408 104.5659408  68.6690000
 135.4019408 103.1709408  69.2080000 127.6489408 107.3009408  72.5020000
 127.1329408 107.8939408  73.0490000 127.6139408 106.4609408  72.9600000
 142.4549408  93.6049408  62.6640000 141.6819408  93.5749408  62.1000000
 142.7979408  94.4919408  62.5530000 141.2289408 110.5009408  74.9470000
 140.8759408 111.0379408  75.6570000 141.9479408 111.0209408  74.5870000
 131.1919408 116.2969408  61.5580000 131.2509408 117.2469408  61.6600000
 131.6389408 115.9449408  62.3270000 124.6869408  93.6109408  72.3470000
 123.8339408  93.9499408  72.0730000 125.2309408  94.3909408  72.4540000
 131.3659408 110.8169408  72.9800000 131.3449408 111.5859408  72.4090000
 132.2869408 110.5579408  72.9990000 135.5709408  94.5019408  83.2080000
 136.1229408  95.1429408  82.7600000 135.2669408  93.9189408  82.5130000
 134.5329408 109.5259408  67.8070000 134.0209408 108.9609408  68.3850000
 133.9069408 110.1799408  67.4950000 124.9169408 104.0799408  66.0540000
 125.2429408 103.2809408  66.4690000 124.3959408 104.5079408  66.7330000
 131.9419408  94.9309408  78.4310000 132.8109408  95.3169408  78.3240000
 131.7659408  94.9919408  79.3700000 122.9999408 113.7209408  64.9930000
 122.5599408 113.1309408  65.6050000 123.7909408 113.2499408  64.7310000
 129.3909408  95.9979408  73.5600000 128.4679408  95.8209408  73.7410000
 129.5449408  95.6099408  72.6990000 126.4589408 109.0469408  74.2110000
 125.7969408 108.9559408  74.8960000 127.0899408 109.6709408  74.5690000
 132.7269408  94.7419408  73.0350000 133.5559408  94.2759408  72.9230000
 132.3699408  94.4009408  73.8560000 130.9189408 105.5149408  71.9010000
 130.0709408 105.1079408  71.7250000 130.7289408 106.4519408  71.9560000
 131.2779408  98.6519408  69.3500000 131.3409408  97.9429408  69.9910000
 130.6729408  99.2789408  69.7440000 127.3769408 118.8119408  61.6800000
 126.6809408 118.2869408  61.2850000 127.2869408 118.6599408  62.6210000
 135.6899408 108.6069408  64.5490000 135.8669408 108.6029408  63.6090000
 136.2479408 107.9129408  64.9010000 126.0069408  90.8799408  64.4630000
 126.8559408  90.4709408  64.2940000 126.1609408  91.8149408  64.3310000
 129.4119408  98.7209408  66.5640000 129.9009408  98.4549408  67.3430000
 130.0189408  99.2819408  66.0810000 130.9679408 108.3959408  75.9660000
 131.6029408 107.8829408  75.4660000 130.1389408 107.9329408  75.8490000
 129.0729408 100.0809408  69.9790000 129.3089408 100.3209408  70.8750000
 128.1399408  99.8699408  70.0250000 128.6629408 113.0849408  65.7270000
 129.1639408 112.7029408  66.4480000 129.3049408 113.2099408  65.0280000
 132.1909408  93.0269408  66.6490000 132.5829408  93.5069408  67.3790000
 132.8259408  92.3399408  66.4440000 122.7639408 100.3209408  75.9390000
 122.1979408 100.7929408  75.3280000 122.1579408  99.8679408  76.5260000
 123.7929408  95.9289408  78.5460000 124.5359408  95.3939408  78.2680000
 123.0419408  95.5539408  78.0850000 127.2649408  95.4869408  70.7700000
 126.6499408  96.0649408  70.3180000 127.6409408  94.9459408  70.0760000
 124.4899408  94.3149408  68.6110000 123.8189408  93.6769408  68.8510000
 124.7519408  94.0669408  67.7250000 138.2059408 101.1969408  71.0920000
 138.7899408 101.1579408  70.3350000 137.3289408 101.0939408  70.7250000
 132.6159408  92.7419408  62.6460000 132.2479408  93.1119408  61.8440000
 133.2749408  93.3789408  62.9240000 123.9959408 100.0319408  79.2360000
 124.7059408  99.4889408  78.8920000 124.1359408 100.8909408  78.8370000
 133.6049408  99.6929408  63.1680000 134.0819408  98.9459408  63.5280000
 134.2209408 100.4239408  63.2310000 130.6809408 101.2849408  60.4750000
 130.9629408 101.9649408  59.8630000 130.5939408 101.7389408  61.3140000
 126.1979408 118.7859408  67.3920000 125.6229408 119.3219408  67.9370000
 126.9389408 119.3569408  67.1890000 135.6389408  96.6119408  68.9870000
 135.6199408  96.6119408  69.9440000 136.5409408  96.8459408  68.7660000
 136.1629408 110.3279408  69.8410000 135.8969408 110.1039408  68.9500000
 135.7949408 109.6309408  70.3840000 138.8369408 109.6889408  73.6890000
 139.6529408 109.8079408  74.1740000 139.0429408 109.9709408  72.7980000
 127.3569408 104.9479408  74.1060000 126.7409408 104.6609408  74.7800000
 127.7119408 104.1349408  73.7450000 142.1589408 101.9809408  68.6940000
 142.2029408 102.9319408  68.6020000 142.8179408 101.6489408  68.0840000
 121.5759408  91.8369408  72.3790000 121.6699408  91.3979408  71.5340000
 121.7809408  92.7539408  72.1980000 129.7979408 103.5629408  80.7020000
 129.9119408 102.6129408  80.6900000 130.2249408 103.8659408  79.9000000
 132.6309408 103.1459408  74.3340000 132.2629408 103.3379408  73.4710000
 132.9819408 102.2589408  74.2530000 130.1429408  98.5439408  62.9460000
 130.7999408  98.6049408  62.2530000 130.5939408  98.8529408  63.7320000
 124.7069408 105.4199408  83.1280000 124.5639408 105.8999408  82.3120000
 124.9709408 106.0909408  83.7570000 122.9149408 106.4549408  74.3630000
 123.5279408 107.1049408  74.7050000 122.2449408 106.3749408  75.0420000
 129.9729408  91.6209408  69.1660000 130.8859408  91.7839408  68.9290000
 130.0159408  91.2549408  70.0490000 132.5159408  99.3919408  67.0440000
 132.9239408  98.9559408  66.2950000 132.6179408  98.7729408  67.7670000
 140.6819408 104.5549408  70.8580000 140.4699408 104.9719408  71.6930000
 139.8309408 104.3559408  70.4670000 125.0659408 102.1979408  78.1450000
 125.8319408 101.7159408  77.8330000 124.6889408 102.5859408  77.3550000
 124.4699408  96.9909408  81.0950000 124.3759408  96.7169408  80.1820000
 124.4599408  97.9469408  81.0610000 136.7989408  98.8369408  81.9130000
 136.1259408  98.2629408  81.5470000 137.3839408  98.2479408  82.3890000
 137.3339408  91.3149408  77.3720000 137.1459408  92.1649408  77.7700000
 136.5919408  90.7639408  77.6200000 124.3569408 114.6489408  73.1330000
 125.1819408 115.0809408  72.9100000 123.8739408 115.2999408  73.6410000
 126.0859408 104.8579408  71.4430000 125.4669408 105.3769408  70.9300000
 125.9959408 105.1919408  72.3360000 133.4409408 106.1729408  68.5040000
 133.3789408 105.9409408  67.5780000 132.7799408 106.8539408  68.6260000
 128.5019408  94.1379408  68.6120000 128.8629408  94.4539408  67.7840000
 128.9809408  93.3279408  68.7890000 129.2219408 119.9579408  79.5540000
 129.1209408 119.3189408  78.8490000 129.7729408 120.6449408  79.1780000
 125.8979408 116.1729408  75.7840000 124.9769408 116.4009408  75.6590000
 126.2559408 116.1269408  74.8980000 124.1719408  98.0399408  66.5580000
 123.5999408  98.3309408  67.2680000 124.3229408  98.8259408  66.0330000
 140.9309408  98.1219408  77.8530000 140.4899408  98.4399408  78.6410000
 141.2959408  98.9089408  77.4480000 123.5469408 119.1949408  74.3880000
 123.4529408 118.7309408  73.5560000 124.0779408 119.9629408  74.1760000
 127.6459408 105.5889408  60.5610000 128.1379408 104.9059408  61.0160000
 128.1499408 106.3889408  60.7110000 129.7719408  92.8839408  65.6410000
 130.6209408  92.7349408  66.0590000 129.7999408  92.3549408  64.8440000
 129.0259408 106.3989408  75.6100000 128.7289408 106.0099408  76.4320000
 128.4029408 106.0809408  74.9560000 144.9449408 100.7089408  82.4340000
 144.4059408 100.1399408  82.9830000 144.3479408 101.3989408  82.1430000
 132.9919408  96.0789408  80.9050000 133.2669408  96.9929408  80.8340000
 133.4549408  95.7489408  81.6750000 139.7759408 107.0209408  66.7930000
 139.6259408 107.7959408  66.2530000 139.1299408 107.0889408  67.4960000
 144.9269408 105.3199408  69.5870000 145.3159408 104.5869408  70.0650000
 145.3279408 105.2809408  68.7190000 125.7419408 101.5499408  72.2860000
 125.5099408 101.7689408  73.1890000 126.5849408 101.9799408  72.1450000
 149.0709408  92.3679408  73.5800000 149.1899408  92.7229408  74.4610000
 149.9599408  92.2269408  73.2550000 135.3469408  97.8619408  73.5700000
 135.5059408  97.1419408  72.9600000 136.2199408  98.1279408  73.8590000
 133.9419408 117.7469408  71.2050000 133.6119408 117.6369408  72.0970000
 133.2129408 118.1429408  70.7270000 122.4759408 103.4329408  71.5170000
 122.9669408 103.3179408  72.3310000 122.3929408 104.3819408  71.4200000
 124.0809408 100.9719408  70.1910000 123.3579408 101.5829408  70.3280000
 124.6869408 101.1519408  70.9110000 122.4699408  92.2689408  69.4860000
 121.9209408  93.0069408  69.2190000 121.8819408  91.5139408  69.4670000
 123.0199408 106.0899408  71.5960000 122.9749408 106.1599408  72.5500000
 123.1089408 106.9939408  71.2930000 132.5739408 104.1909408  76.7410000
 132.6879408 103.7449408  75.9010000 133.3929408 104.6689408  76.8720000
 129.4949408 105.9309408  63.8740000 129.7659408 105.7989408  64.7830000
 129.9059408 106.7569408  63.6190000 128.0449408 108.2839408  77.2700000
 127.8129408 107.5769408  77.8720000 128.2419408 107.8409408  76.4450000
 128.0199408  91.0509408  74.0630000 128.1869408  91.8039408  73.4960000
 128.5849408  91.1939408  74.8240000 132.3299408 113.4389408  64.0320000
 131.5709408 112.9229408  63.7610000 133.0749408 113.0059408  63.6160000
 123.8559408 118.2669408  66.1100000 123.5329408 119.1219408  65.8250000
 124.7399408 118.4389408  66.4320000 122.1229408 112.1309408  77.8600000
 122.8419408 111.8089408  77.3180000 122.3069408 113.0629408  77.9750000
 138.9909408  98.3469408  65.9690000 139.9089408  98.3779408  66.2400000
 138.8449408  97.4349408  65.7200000 125.8029408 106.0779408  64.3120000
 126.5949408 105.6419408  63.9980000 125.6179408 105.6609408  65.1540000
 135.6349408 101.6509408  63.7230000 136.4549408 101.1739408  63.8460000
 135.4639408 102.0589408  64.5730000 133.6209408 105.0579408  71.2560000
 132.8359408 105.3699408  71.7060000 133.5009408 105.3309408  70.3470000
 126.7349408 100.4089408  76.9120000 127.6709408 100.2119408  76.8740000
 126.3309408  99.5979408  77.2210000 129.1019408 109.7299408  82.1000000
 129.8669408 109.3959408  81.6300000 129.3469408 110.6199408  82.3550000
 128.8879408 110.4159408  61.5990000 128.2829408 109.7779408  61.9770000
 128.7719408 111.2019408  62.1330000 128.1309408 107.3219408  69.6840000
 128.1119408 108.2399408  69.4110000 127.9969408 107.3509408  70.6310000
 131.8609408  98.8709408  60.8180000 131.4729408  99.7019408  60.5460000
 132.8049408  99.0259408  60.7920000 134.0549408 110.7059408  79.8650000
 133.1819408 110.5199408  80.2090000 134.1139408 110.1809408  79.0660000
 128.7819408 104.8269408  70.5120000 127.8989408 104.6719408  70.8490000
 128.7299408 105.6859408  70.0920000 145.7759408 105.5769408  75.5950000
 146.5949408 105.4519408  75.1160000 145.8309408 104.9639408  76.3280000
 134.7319408  95.0299408  66.7360000 135.2879408  94.2539408  66.6670000
 135.2679408  95.6689408  67.2060000 134.8019408 105.4929408  76.8610000
 134.9129408 106.3009408  76.3600000 135.6729408 105.3059408  77.2110000
 147.4529408 102.4809408  72.6510000 146.9679408 101.6609408  72.7380000
 148.3159408 102.2169408  72.3320000 139.8039408 100.9529408  68.8190000
 140.7069408 101.2619408  68.7410000 139.2889408 101.5889408  68.3220000
 133.6759408 102.0399408  68.3110000 132.9579408 102.4469408  68.7970000
 133.3909408 101.1369408  68.1740000 124.4319408  89.9699408  69.1520000
 124.9539408  90.3289408  69.8690000 123.7079408  90.5879408  69.0490000
 123.1979408 105.2869408  67.9950000 122.5999408 105.4139408  67.2590000
 122.7259408 104.7069408  68.5910000 133.4919408 100.2479408  75.4210000
 134.1179408 100.9619408  75.5410000 134.0109408  99.5349408  75.0460000
 148.8019408  96.7519408  75.1170000 148.5949408  96.3399408  74.2790000
 147.9779408  97.1509408  75.3980000 126.3509408 102.5299408  80.8020000
 125.7639408 102.6359408  80.0530000 126.8079408 103.3679408  80.8690000
 122.1939408  92.4329408  75.0200000 121.9859408  92.0149408  74.1840000
 122.7589408  93.1699408  74.7850000 140.3539408  91.1919408  74.3940000
 141.2449408  91.0649408  74.0680000 140.3279408  92.1089408  74.6690000
 132.9529408 108.1909408  64.7110000 132.8259408 108.4779408  65.6150000
 133.8859408 108.3269408  64.5450000 131.2079408 103.2309408  69.6310000
 131.4929408 103.1859408  70.5430000 130.4689408 103.8389408  69.6400000
 125.2889408 106.5969408  61.2440000 126.1979408 106.4009408  61.4730000
 125.0949408 106.0109408  60.5130000 125.9609408  91.2959408  70.8390000
 126.7089408  91.8909408  70.8830000 125.2019408  91.8499408  71.0230000
 134.0369408  99.3019408  70.0320000 133.0859408  99.2279408  69.9500000
 134.3769408  98.5189408  69.5980000 133.8409408 105.9929408  79.9150000
 133.3829408 105.6059408  79.1690000 134.1529408 106.8389408  79.5910000
 137.9259408 103.8949408  74.1400000 136.9729408 103.9149408  74.2200000
 138.2449408 104.1439408  75.0080000 137.9639408  94.7779408  60.3340000
 137.0519408  95.0459408  60.4500000 138.1979408  94.3589408  61.1630000
 126.0819408 101.7559408  63.1260000 125.2619408 102.2489408  63.0890000
 126.7199408 102.3779408  63.4750000 140.7849408 101.9599408  77.6010000
 141.3309408 101.2469408  77.2700000 140.9109408 102.6709408  76.9720000
 136.0959408 100.7469408  69.5820000 135.3069408 100.3579408  69.9590000
 136.3329408 100.1619408  68.8630000 131.8799408 101.9409408  63.1400000
 131.5959408 101.9629408  64.0530000 132.2839408 101.0799408  63.0340000
 130.6029408 108.1769408  72.3180000 129.6709408 108.0139408  72.4610000
 130.6839408 109.1309408  72.3230000 136.8019408 110.5669408  75.9690000
 137.5409408 109.9729408  75.8380000 136.7199408 111.0359408  75.1380000
 126.3819408  93.8779408  66.2780000 126.8239408  94.1609408  67.0780000
 126.7769408  94.4079408  65.5850000 137.8219408 100.6709408  84.7140000
 137.0509408 100.2079408  84.3860000 138.5589408 100.2549408  84.2680000
 140.9929408 106.8169408  61.4860000 141.3499408 107.6909408  61.3270000
 140.4049408 106.9299408  62.2320000 147.1529408 103.0869408  76.5300000
 147.5009408 102.5009408  77.2020000 146.4709408 102.5749408  76.0950000
 148.4819408 100.9349408  69.6410000 148.8959408 101.1749408  70.4700000
 148.9019408 101.4979408  68.9910000 134.8989408 116.5689408  68.8670000
 134.8359408 116.8249408  69.7880000 134.8469408 115.6129408  68.8800000
 126.4319408  99.2409408  69.6680000 125.6539408  99.7959408  69.6110000
 126.1929408  98.4429408  69.1960000 137.9739408 100.1959408  64.3400000
 138.5639408 100.9399408  64.4650000 138.2259408  99.5729408  65.0210000
 134.5639408 101.3319408  72.5050000 135.3129408 101.9219408  72.4160000
 134.8419408 100.5249408  72.0710000 125.8949408 109.3489408  70.4970000
 125.2319408 109.5939408  71.1420000 125.4229408 108.8129408  69.8600000
 130.5329408  94.8369408  71.0850000 130.4469408  95.5079408  70.4070000
 131.3799408  95.0149408  71.4930000 128.3729408 113.4639408  73.1860000
 129.1639408 113.9339408  72.9220000 127.6539408 113.9979408  72.8490000
 128.0019408 103.8009408  64.2870000 128.6839408 104.4149408  64.0160000
 127.9259408 103.9279408  65.2330000 128.5919408 110.0079408  71.6570000
 127.6919408 109.6829408  71.6220000 128.5009408 110.9549408  71.7650000
 128.5059408 119.5499408  64.7200000 129.2599408 119.8159408  64.1930000
 128.6619408 119.9459408  65.5770000 124.0379408 117.2559408  69.9530000
 124.9729408 117.0479408  69.9550000 123.9999408 118.1869408  69.7350000
 137.8569408  95.7969408  66.3200000 138.7739408  95.6119408  66.1180000
 137.3679408  95.4069408  65.5960000 144.8209408  97.4299408  68.6100000
 144.9309408  96.7309408  67.9650000 145.4989408  98.0679408  68.3900000
 129.6499408 101.8419408  67.8760000 130.4039408 102.2779408  68.2730000
 129.2779408 101.3139408  68.5820000 137.8409408 101.3329408  81.0730000
 137.5779408 100.4969408  81.4570000 137.0239408 101.8229408  80.9800000
 136.4069408  93.6289408  79.0480000 137.1099408  94.2789408  79.0450000
 136.1969408  93.5069408  79.9740000 131.6449408  98.1269408  83.6070000
 131.9199408  97.4939408  84.2710000 131.9309408  98.9729408  83.9510000
 138.3389408  98.6359408  77.0160000 138.1949408  99.4509408  77.4970000
 139.2549408  98.4159408  77.1850000 127.8239408  99.7049408  61.9020000
 128.6989408  99.3949408  62.1340000 127.3699408  99.7939408  62.7400000
 133.4879408  98.3599408  77.7820000 132.5719408  98.4729408  78.0380000
 133.7179408  99.1799408  77.3450000 147.1329408 103.4899408  66.5760000
 146.2129408 103.7239408  66.4540000 147.5309408 104.2739408  66.9540000
 125.3919408  99.8369408  81.5440000 124.4879408 100.0839408  81.7380000
 125.8819408 100.6569408  81.5990000 135.6989408 103.6459408  81.5090000
 134.9289408 104.2119408  81.4530000 135.7449408 103.3939408  82.4310000
 125.3759408  95.8509408  64.5400000 125.9379408  96.5929408  64.3170000
 125.1269408  96.0039408  65.4520000 141.4999408 110.8909408  81.6630000
 141.5299408 111.8449408  81.5890000 141.2169408 110.5929408  80.7990000
 136.1989408 102.7839408  84.3270000 136.9519408 102.3809408  84.7590000
 135.5079408 102.1229408  84.3830000 140.3079408 102.6819408  81.5200000
 139.5659408 102.7069408  82.1230000 140.0339408 103.2229408  80.7790000
 143.5869408 101.2759408  63.3410000 142.6949408 101.6219408  63.3230000
 144.1119408 101.9439408  62.9000000 127.8799408 116.0279408  83.7110000
 128.5289408 116.2299408  83.0370000 127.0729408 115.8609408  83.2240000
 138.4169408 104.7709408  80.7260000 138.8399408 105.1919408  81.4750000
 137.5249408 104.5919408  81.0240000 134.9759408 105.1649408  83.9550000
 135.6309408 105.7189408  83.5300000 135.4869408 104.4979408  84.4130000
 140.1269408 107.4139408  77.2570000 140.8569408 108.0169408  77.1180000
 140.2649408 107.0689408  78.1390000 137.7229408  99.0149408  74.5310000
 138.2079408  99.8399408  74.5330000 137.7629408  98.7109408  75.4380000
 137.0589408  94.2909408  63.6940000 137.3229408  93.4279408  64.0130000
 136.3329408  94.1129408  63.0950000 132.1429408 103.0499408  83.4810000
 132.7959408 103.1569408  82.7890000 131.8279408 103.9369408  83.6530000
 129.2999408  94.7489408  76.6790000 128.4779408  94.7659408  76.1890000
 129.0309408  94.7099408  77.5970000 130.2849408  99.8869408  72.5980000
 130.8409408  99.1149408  72.4900000 130.1829408  99.9779408  73.5460000
 148.8309408  97.2719408  62.2880000 148.8699408  96.9779408  63.1980000
 149.5399408  96.7969408  61.8530000 137.8369408  95.8009408  78.3520000
 138.7399408  95.6199408  78.0890000 137.7859408  96.7559408  78.3950000
 132.3099408 107.8379408  78.4750000 131.5999408 107.7869408  77.8350000
 132.9599408 108.4099408  78.0670000 141.5769408 100.0929408  73.5580000
 140.8019408 100.5149408  73.9290000 141.6999408 100.5189408  72.7100000
 125.6739408 113.6199408  60.0820000 126.0949408 113.8689408  60.9050000
 126.3839408 113.2649408  59.5480000 123.0279408 108.2679408  61.4330000
 123.1569408 109.2159408  61.4620000 123.8729408 107.9189408  61.1520000
 125.6639408  98.1749408  78.2520000 126.2629408  97.8789408  78.9380000
 125.1889408  97.3859408  77.9920000 125.9109408  96.2639408  83.1760000
 125.8639408  95.3079408  83.1610000 125.2579408  96.5469408  82.5370000
 123.5549408 102.7819408  63.2750000 122.7219408 102.4139408  63.5720000
 123.4619408 103.7249408  63.4110000 140.1159408  93.8369408  75.0270000
 140.6079408  94.5009408  74.5440000 139.2639408  93.8059408  74.5920000
 129.1499408 119.6889408  82.5040000 129.9349408 120.2339408  82.5540000
 129.1679408 119.3219408  81.6200000 129.0229408 100.0999408  83.4030000
 128.3649408 100.6929408  83.7660000 128.5369408  99.3039408  83.1870000
 122.6359408  99.1879408  72.6550000 122.1249408  99.8089408  73.1730000
 121.9839408  98.6069408  72.2650000 130.1199408  91.7629408  63.4120000
 129.5699408  91.8339408  62.6310000 130.9739408  92.0939408  63.1340000
 144.7679408  96.0699408  77.1460000 143.8289408  96.0299408  76.9640000
 145.1819408  95.7409408  76.3480000 125.1569408 101.4689408  75.1180000
 124.3929408 101.0489408  75.5120000 125.9069408 101.0229408  75.5130000
 136.3049408 107.8459408  78.6500000 136.4699408 108.5339408  78.0040000
 136.6669408 107.0539408  78.2540000 131.4229408  91.4139408  82.3640000
 131.7979408  91.2949408  83.2370000 132.1729408  91.6199408  81.8060000
 124.3739408  92.0349408  82.5920000 125.0449408  92.5869408  82.9950000
 123.7539408  92.6539408  82.2080000 127.8019408 106.5439408  67.0640000
 127.6149408 105.6139408  67.1890000 127.8329408 106.9049408  67.9500000
 132.7309408 102.2139408  78.9580000 132.2289408 101.4239408  78.7610000
 132.6519408 102.7509408  78.1690000 127.4109408  98.2469408  82.5390000
 127.0039408  97.3889408  82.6570000 126.8979408  98.6629408  81.8460000
 138.8269408  93.5309408  82.3500000 138.8589408  92.6169408  82.6340000
 139.3369408  93.5479408  81.5400000 133.0339408 104.4019408  63.2410000
 133.4299408 104.6769408  62.4150000 132.6019408 103.5729408  63.0360000
 134.6579408  91.6439408  84.3280000 135.2989408  91.5509408  85.0330000
 133.8909408  92.0299408  84.7510000 129.2199408 100.8319408  80.8010000
 128.2959408 100.9889408  80.6070000 129.2279408 100.5439408  81.7140000
 128.1889408 107.1529408  83.5900000 129.0689408 107.0679408  83.9560000
 127.9749408 108.0809408  83.6910000 127.2109408  98.0059408  65.3860000
 126.6419408  98.7579408  65.5510000 127.9689408  98.1489408  65.9520000
 141.0649408  99.6399408  62.0140000 141.5329408  99.0169408  62.5690000
 141.5449408  99.6309408  61.1850000 124.8949408 108.8529408  66.4910000
 125.2919408 109.6979408  66.7040000 125.4089408 108.5259408  65.7530000
 120.8779408 119.1329408  61.2170000 121.1779408 119.6449408  60.4660000
 121.0379408 118.2229408  60.9670000 126.9089408  94.5699408  75.4710000
 126.4269408  95.1219408  74.8560000 126.2819408  94.3849408  76.1700000
 136.1519408 106.8349408  66.9130000 135.4469408 106.5409408  66.3350000
 135.7099408 107.0769408  67.7270000 135.4429408  90.1609408  73.2290000
 136.1079408  89.5109408  73.4580000 135.5879408  90.8799408  73.8430000
 144.0269408 109.3799408  81.4100000 144.2849408 108.4959408  81.6720000
 143.1719408 109.5119408  81.8210000 134.3959408 108.1949408  70.7400000
 134.3709408 108.1429408  71.6950000 134.2869408 107.2889408  70.4480000
 124.5679408 102.7609408  83.3450000 124.5269408 103.7069408  83.4870000
 124.8839408 102.6679408  82.4460000 141.5419408  92.2789408  84.3060000
 141.1949408  92.1159408  83.4290000 141.4429408  91.4439408  84.7630000
 134.6329408 113.1429408  70.1660000 134.8209408 113.6079408  69.3500000
 134.7559408 112.2189408  69.9490000 135.3159408 102.0549408  76.3340000
 134.9349408 102.8129408  76.7780000 136.1729408 101.9419408  76.7450000
 142.2929408 107.8109408  83.8080000 142.1829408 107.0259408  84.3450000
 142.7159408 108.4419408  84.3890000 129.7159408 107.2639408  60.6440000
 130.4809408 106.8889408  60.2080000 130.0779408 107.7609408  61.3780000
 127.2109408 101.8149408  84.3940000 126.3699408 102.1359408  84.0660000
 127.5599408 102.5409408  84.9100000 120.1669408  98.8079408  80.3710000
 119.8829408  98.0049408  80.8070000 119.9809408  99.5029408  81.0020000
 131.3649408  99.9299408  78.7550000 130.7509408  99.2719408  78.4300000
 131.2129408  99.9549408  79.7000000 134.3869408 110.9349408  61.0510000
 133.5169408 111.2199408  60.7720000 134.8489408 110.7409408  60.2360000
 130.7769408  99.9669408  75.3550000 131.7099408 100.1599408  75.2610000
 130.7469408  99.1889408  75.9110000 139.8279408 105.7489408  73.0870000
 140.5869408 105.7009408  73.6680000 139.2939408 104.9909408  73.3260000
 148.4329408  91.3169408  77.7720000 148.3759408  90.3929408  78.0160000
 148.3789408  91.7879408  78.6040000 136.9629408 106.6139408  82.6300000
 136.8069408 107.5369408  82.8310000 137.8629408 106.5879408  82.3060000
 146.9299408 101.9079408  61.8610000 146.9209408 102.4829408  62.6270000
 147.6339408 101.2839408  62.0360000 135.8339408  93.3109408  61.4930000
 136.3929408  92.5349408  61.4550000 135.4889408  93.4019408  60.6050000
 120.8749408  93.4179408  83.9600000 120.5559408  92.5409408  83.7490000
 121.6379408  93.5389408  83.3940000 133.8929408 109.7199408  77.2500000
 133.8199408 110.5249408  76.7370000 134.7049408 109.3139408  76.9450000
 130.5189408  97.1779408  75.9270000 130.5439408  96.3239408  76.3590000
 130.1409408  96.9999408  75.0660000 135.9109408 117.6449408  80.9300000
 135.4609408 116.9469408  80.4540000 135.2979408 117.8989408  81.6190000
 137.6369408 120.0739408  82.6510000 137.4279408 119.3739408  82.0330000
 137.3079408 119.7569408  83.4920000 127.9469408  97.0969408  79.7360000
 127.9239408  96.1409408  79.7090000 128.7869408  97.3059408  80.1460000
 136.8989408 119.9439408  65.6780000 136.7499408 119.2089408  66.2740000
 136.6159408 119.6199408  64.8230000 129.8299408 117.2289408  65.4010000
 128.9329408 117.4469408  65.1470000 130.3679408 117.5429408  64.6740000
 121.1219408  96.0539408  69.6410000 120.6489408  96.3209408  68.8530000
 121.9209408  96.5809408  69.6320000 131.1519408 112.9069408  80.7830000
 131.1849408 111.9589408  80.9060000 130.5209408 113.0349408  80.0740000
 131.0869408 115.7069408  67.3250000 130.8939408 116.1889408  68.1280000
 130.7599408 116.2699408  66.6230000 122.6749408 108.7829408  70.9760000
 123.1839408 109.3299408  71.5740000 123.0549408 108.9529408  70.1140000
 133.9669408 105.5319408  65.7910000 134.1179408 104.5939408  65.6770000
 133.3829408 105.7699408  65.0710000 122.1679408  94.6769408  72.0900000
 121.6919408  95.0179408  71.3330000 121.8439408  95.1909408  72.8290000
 129.7219408 118.0699408  68.6160000 129.4219408 118.0619408  67.7080000
 129.1469408 118.6979408  69.0530000 131.7279408 110.3879408  81.2710000
 131.6209408 109.5149408  80.8940000 132.3419408 110.2629408  81.9960000
 148.0529408 115.8899408  72.2050000 148.2489408 116.7309408  72.6180000
 147.0989408 115.8779408  72.1250000 133.8599408  96.7389408  62.4700000
 133.0679408  97.2019408  62.1940000 133.5509408  96.0939408  63.1060000
 124.9999408 119.5199408  78.2440000 125.1339408 119.6689408  79.1800000
 124.6149408 120.3359408  77.9240000 130.5059408 109.8669408  66.1100000
 129.8559408 109.5139408  65.5030000 129.9949408 110.3779408  66.7380000
 133.0909408  95.1259408  64.6640000 133.6829408  95.1169408  65.4160000
 132.3979408  94.5079408  64.8970000 123.3269408 114.6049408  79.3680000
 124.2059408 114.2289408  79.3230000 123.4169408 115.4729408  78.9750000
 120.0379408 111.4779408  64.6990000 120.9309408 111.1549408  64.5830000
 119.4899408 110.8369408  64.2450000 135.7609408 115.8819408  64.7460000
 135.6409408 115.0999408  64.2060000 134.9199408 115.9989408  65.1890000
 134.2179408 110.3289408  73.1910000 134.4609408 111.2159408  72.9250000
 135.0449408 109.9189408  73.4450000 137.6079408 111.4719408  81.4500000
 137.1129408 112.1989408  81.8280000 137.2049408 110.6879408  81.8230000
 132.8429408 114.9729408  81.9030000 132.4879408 114.2539408  81.3800000
 133.3269408 115.5089408  81.2750000 124.6779408 112.4899408  76.5850000
 125.2769408 113.2359408  76.6160000 125.2109408 111.7439408  76.8610000
 125.7979408 111.3969408  66.7650000 126.4539408 111.7799408  67.3470000
 124.9819408 111.4349408  67.2640000 137.4849408 117.6719408  67.7400000
 136.6389408 117.2889408  67.9700000 137.8719408 117.0489408  67.1250000
 122.3099408 108.7869408  65.5240000 121.6629408 108.6259408  66.2120000
 123.1549408 108.6519408  65.9530000 134.3059408 118.7819408  67.3720000
 134.7559408 118.1469408  67.9280000 133.9669408 118.2639408  66.6420000
 144.3189408 114.7159408  74.1060000 144.8969408 113.9829408  73.8980000
 144.5489408 115.3919408  73.4680000 126.4959408 108.9039408  62.3800000
 125.9039408 109.5189408  61.9470000 125.9969408 108.0889408  62.4350000
 136.4369408 109.0669408  81.2430000 136.5039408 108.3559408  80.6060000
 135.6939408 109.5899408  80.9420000 127.2649408 113.0889408  63.3920000
 127.5729408 113.8519408  62.9040000 127.6459408 113.1919408  64.2640000
 130.3759408 113.4779408  77.1180000 129.6279408 113.2069408  77.6500000
 130.5139408 112.7509408  76.5100000 135.4449408 115.1009408  74.0140000
 136.2459408 115.2109408  73.5020000 135.0809408 114.2679408  73.7140000
 129.1669408  95.4379408  65.7480000 128.8509408  95.6709408  64.8750000
 129.4189408  94.5179408  65.6750000 124.2729408 110.1469408  72.5690000
 123.8439408 110.9559408  72.8460000 125.0339408 110.0699408  73.1450000
 123.2469408 105.4839408  63.2100000 123.6359408 106.1419408  62.6340000
 123.7999408 105.4919408  63.9910000 124.1789408 107.7809408  68.9290000
 124.2309408 108.1619408  68.0530000 123.5919408 107.0319408  68.8310000
 131.1639408 119.3629408  74.0990000 131.9599408 119.0219408  74.5070000
 130.8289408 120.0059408  74.7250000 131.2709408 119.4239408  60.7540000
 131.1439408 119.1009408  59.8620000 130.7259408 120.2099408  60.8040000
 130.1639408 104.3359408  77.9330000 129.7059408 103.4989408  77.8530000
 130.9369408 104.2409408  77.3770000 126.7049408 114.8669408  67.0240000
 127.3139408 114.3839408  66.4660000 126.0519408 115.2189408  66.4190000
 120.7809408 107.7779408  63.0700000 121.3749408 107.8329408  63.8190000
 121.3059408 108.0689408  62.3250000 126.9129408 116.0559408  73.0170000
 126.7609408 116.9919408  73.1450000 127.8609408 115.9539408  73.1010000
 129.9689408 115.5049408  71.5150000 130.0609408 116.2039408  72.1630000
 129.5309408 115.9229408  70.7730000 132.8559408  92.0519408  69.6080000
 133.6339408  91.5559408  69.8640000 132.6389408  92.5739408  70.3800000
 130.9059408 112.2719408  61.9450000 130.8709408 111.3879408  61.5790000
 130.4339408 112.8129408  61.3120000 120.6149408 104.7429408  62.4330000
 119.9859408 105.4539408  62.5520000 121.4659408 105.1429408  62.6100000
 135.8529408 113.8829408  67.9390000 135.9139408 113.7729408  66.9900000
 136.7569408 114.0099408  68.2250000 127.6779408 105.6369408  78.2270000
 127.3809408 105.6059408  79.1360000 128.4549408 105.0779408  78.2080000
 124.3649408 112.5619408  70.9050000 123.8259408 113.0119408  71.5560000
 125.0559408 113.1889408  70.6910000 131.6299408 113.2589408  71.2250000
 131.9139408 113.2529408  70.3110000 130.9499408 113.9319408  71.2610000
 123.3079408 112.3489408  74.1740000 123.6449408 113.1049408  73.6930000
 123.8179408 112.3319408  74.9840000 140.0859408  93.0319408  61.4180000
 140.4329408  92.3479408  60.8450000 139.2249408  92.7079408  61.6830000
 148.1769408  92.4219408  80.1510000 147.3749408  92.2089408  80.6290000
 148.4289408  93.2859408  80.4760000 139.2209408 118.9019408  69.3070000
 138.6819408 119.2899408  69.9960000 138.5979408 118.6619408  68.6210000
 120.7819408 106.6869408  75.9170000 120.1779408 106.2529408  76.5200000
 120.3069408 107.4619408  75.6180000 126.7389408 114.1779408  69.9850000
 126.8389408 115.0859408  70.2700000 126.8689408 114.2079408  69.0370000
 130.4329408  91.4439408  75.7220000 130.5989408  91.4719408  76.6650000
 130.7079408  92.3039408  75.4050000 123.3309408 109.3729408  78.2010000
 122.4419408 109.5659408  78.5000000 123.8949408 109.6769408  78.9110000
 146.3379408  98.5209408  74.7070000 145.9319408  99.3879408  74.7270000
 145.5999408  97.9109408  74.7000000 123.1059408 111.9459408  68.1800000
 123.4189408 112.7029408  68.6760000 122.1519408 112.0229408  68.2010000
 135.4369408 113.2539408  80.0090000 136.0059408 113.1119408  79.2530000
 135.0009408 112.4129408  80.1430000 127.0619408 111.4499408  69.2770000
 127.2629408 112.2119408  69.8210000 126.5489408 110.8769408  69.8470000
 132.0659408 118.8869408  69.7040000 131.2279408 118.5389408  69.3980000
 132.5209408 119.1529408  68.9050000 131.2699408 116.0949408  76.5260000
 131.8939408 116.0249408  75.8040000 131.2699408 115.2259408  76.9290000
 130.8659408 108.4719408  62.7640000 130.6719408 109.4039408  62.8690000
 131.5619408 108.2989408  63.3990000 133.6439408  90.4429408  61.8470000
 132.8629408  90.2199408  61.3410000 133.6489408  91.3999408  61.8730000
 123.1739408  90.5829408  64.5740000 124.1289408  90.6499408  64.5680000
 122.8779408  91.4079408  64.9580000 129.4209408 111.4549408  67.9740000
 128.8169408 111.4819408  68.7160000 130.2109408 111.8929408  68.2920000
 148.8549408 113.9129408  70.4620000 148.1329408 113.2899408  70.3720000
 148.5459408 114.5469408  71.1090000 129.8059408 105.8759408  81.7940000
 128.8959408 106.1509408  81.9020000 129.7489408 104.9669408  81.5000000
 127.9939408 111.3219408  74.6600000 128.8919408 111.3319408  74.9910000
 127.9779408 112.0019408  73.9870000 145.4639408 115.1709408  68.5830000
 144.5769408 115.4189408  68.3240000 145.9009408 114.9499408  67.7600000
 144.4759408 110.8279408  79.0240000 145.3199408 111.0919408  78.6570000
 144.7019408 110.2359408  79.7420000 132.9509408  91.3049408  72.5350000
 133.5739408  90.6049408  72.7320000 132.1069408  90.9639408  72.8300000
 149.8429408 116.8959408  68.9490000 149.2369408 116.1979408  68.6960000
 150.4319408 116.4839408  69.5810000 133.2739408 116.0209408  65.5640000
 133.0779408 115.8549408  66.4860000 132.5129408 115.6839408  65.0920000
 133.9679408 113.1959408  72.7510000 133.0609408 113.1179408  72.4530000
 134.4749408 113.3119408  71.9480000 127.9659408 113.2009408  84.6000000
 128.6309408 112.7009408  84.1270000 127.9549408 114.0549408  84.1660000
 148.8189408 118.9629408  79.5480000 149.3499408 118.7979408  80.3270000
 147.9169408 118.8389408  79.8420000 127.1999408  92.1849408  79.7970000
 127.7519408  91.4189408  79.6400000 126.4489408  91.8439408  80.2840000
 136.6659408 102.2829408  61.1970000 136.1439408 103.0379408  60.9240000
 136.2319408 101.9649408  61.9890000 131.4439408 105.8639408  83.9440000
 132.0879408 106.3889408  83.4680000 130.7859408 105.6379408  83.2870000
 134.5009408 102.8519408  65.8720000 134.3729408 102.6739408  66.8040000
 133.6179408 102.8409408  65.5020000 130.8959408 109.7499408  69.9370000
 130.1039408 109.8069408  70.4710000 131.6099408 109.9329408  70.5480000
 139.0259408 104.6979408  65.6060000 139.1789408 105.5409408  66.0320000
 138.8219408 104.0999408  66.3250000 126.7689408 118.4729408  74.2330000
 127.3599408 119.2059408  74.4070000 125.9639408 118.6979408  74.6990000
 147.3529408  90.3099408  72.8330000 147.5099408  89.6729408  73.5300000
 147.9369408  91.0399408  73.0390000 132.1129408 108.3489408  67.7370000
 131.7449408 108.5769408  68.5910000 131.5649408 108.8179408  67.1070000
 144.6629408 109.5749408  72.4850000 144.9049408 108.8659408  73.0800000
 144.1909408 109.1409408  71.7740000 121.4539408 119.7109408  75.8930000
 121.4329408 120.6619408  76.0040000 122.2849408 119.5399408  75.4500000
 126.8329408 110.5419408  77.8900000 127.4509408 109.8449408  77.6710000
 126.2749408 110.1639408  78.5700000 145.2199408 104.8659408  61.3530000
 145.3179408 104.0859408  60.8060000 144.4369408 105.3009408  61.0120000
 138.8679408 117.6099408  63.3490000 139.7269408 117.3279408  63.6620000
 138.2529408 117.2769408  64.0020000 128.3579408  94.1779408  61.8600000
 128.4489408  94.8209408  62.5630000 127.5369408  93.7239408  62.0540000
 131.2019408 118.7629408  63.4690000 131.2119408 119.5939408  63.9450000
 131.6049408 118.9659408  62.6240000 126.1329408 113.5059408  80.1000000
 126.3269408 113.2889408  79.1880000 126.9599408 113.8419408  80.4480000
 130.2109408 118.4339408  71.9620000 131.0079408 118.2959408  71.4500000
 130.5229408 118.6039408  72.8510000 121.6809408 118.4499408  67.5820000
 122.3499408 117.9409408  67.1260000 120.8959408 117.9039408  67.5440000
 145.9239408 112.7609408  73.2040000 145.7279408 112.7439408  72.2670000
 146.0819408 111.8459408  73.4340000 139.3099408 116.6769408  74.0320000
 139.6109408 116.8749408  74.9190000 139.3619408 115.7229408  73.9680000
 123.3539408 114.7089408  69.0660000 123.7559408 115.5449408  69.3010000
 122.5179408 114.9489408  68.6650000 121.4129408 116.7549408  60.3960000
 122.1889408 117.0679408  59.9310000 121.2349408 115.8959408  60.0140000
 149.6089408 117.8679408  75.3230000 150.1049408 117.1339408  74.9590000
 150.2649408 118.5469408  75.4810000 142.3659408 104.6299408  68.6880000
 141.7399408 104.6659408  69.4110000 143.1379408 105.0919408  69.0160000
 121.5119408 109.0599408  73.6060000 120.8219408 109.4449408  73.0660000
 122.0049408 108.5029408  73.0030000 123.9449408 116.8669408  78.1460000
 123.7629408 116.8199408  77.2080000 124.4529408 117.6719408  78.2510000
 133.2799408 112.0519408  75.6120000 132.3279408 111.9589408  75.6370000
 133.5199408 111.8259408  74.7140000 132.9559408 111.3659408  66.3640000
 133.4859408 111.8059408  65.6990000 132.4029408 110.7609408  65.8690000
 123.4409408  96.1809408  61.9050000 124.0029408  96.8479408  61.5100000
 123.9759408  95.7989408  62.6010000 137.0119408 113.5979408  60.0990000
 137.4669408 114.3679408  60.4400000 136.1409408 113.9179408  59.8630000
 138.2589408 102.5979408  67.4360000 137.7069408 101.9699408  66.9700000
 137.6589408 103.0499408  68.0290000 120.1369408  93.5589408  65.8370000
 119.9919408  92.6449408  65.5950000 120.0729408  93.5669408  66.7920000
 146.3759408 113.1479408  82.1470000 145.9069408 113.8409408  81.6830000
 147.2419408 113.1299408  81.7400000 132.6159408 112.0489408  84.5270000
 132.7129408 111.7699408  85.4380000 133.1399408 111.4229408  84.0270000
 124.7479408 116.4299408  62.0810000 124.8309408 115.7089408  62.7050000
 123.9279408 116.8609408  62.3190000 129.2759408 116.4629408  74.7030000
 129.7309408 116.2569408  75.5190000 129.1089408 117.4049408  74.7520000
 143.3719408 119.3539408  76.9710000 143.3079408 118.3989408  76.9860000
 142.9949408 119.6059408  76.1290000 136.2559408 113.4489408  82.4580000
 135.9049408 113.5529408  81.5740000 135.4959408 113.5559408  83.0320000
 126.9949408 105.9949408  80.7340000 126.4209408 105.7369408  81.4560000
 126.9939408 106.9519408  80.7580000 136.4109408 117.9309408  76.0400000
 136.7929408 118.4529408  76.7440000 136.9819408 118.0879408  75.2870000
 134.1419408 114.1589408  84.0840000 133.6309408 113.3779408  84.2940000
 133.5819408 114.6599408  83.4910000 133.5379408 106.9969408  82.3460000
 134.1009408 106.3869408  82.8230000 133.4289408 106.5979408  81.4830000
 133.4829408 109.4799408  83.5240000 133.6019408 108.6709408  83.0260000
 134.1959408 109.4769408  84.1620000 125.5179408 110.8639408  60.6340000
 124.6129408 110.9029408  60.3240000 125.8689408 111.7369408  60.4600000
 134.6979408 115.7839408  79.6430000 134.8279408 115.7939408  78.6940000
 134.6369408 114.8559408  79.8670000 125.6269408 115.5319408  82.0670000
 126.1349408 115.9269408  81.3580000 125.2669408 114.7309408  81.6870000
 144.5209408 107.0009408  82.3890000 145.1209408 106.3069408  82.6620000
 143.6929408 106.7869408  82.8180000 130.6369408 111.0749408  75.7480000
 131.0509408 110.3259408  76.1760000 130.8889408 110.9959408  74.8280000
 134.6019408 118.8039408  83.5100000 135.1489408 118.3629408  84.1610000
 134.6489408 119.7299408  83.7450000 137.2359408 115.8399408  84.2300000
 137.9919408 115.7569408  83.6490000 136.6439408 115.1399408  83.9550000
 136.3829408 115.0279408  76.5230000 135.9809408 114.9789408  75.6560000
 136.6939408 115.9299408  76.5930000 119.8979408 115.6919408  82.9550000
 119.7849408 114.8959408  83.4740000 120.8379408 115.7319408  82.7780000
 128.7329408 115.2859408  62.7840000 129.4529408 115.3559408  62.1580000
 128.2929408 116.1349408  62.7390000 146.7709408  93.6649408  82.7270000
 146.7729408  92.8369408  83.2070000 147.3549408  94.2339408  83.2270000
 129.9189408  93.5539408  81.8240000 129.1149408  93.4609408  82.3350000
 130.5089408  92.8899408  82.1800000 128.4839408 102.6569408  72.7750000
 128.7579408 103.2109408  72.0450000 129.2489408 102.1129408  72.9640000
 124.8689408 112.0059408  64.4930000 125.4839408 112.3369408  63.8380000
 125.3879408 111.9349408  65.2950000 121.1839408 113.8679408  62.2820000
 121.7039408 113.3719408  61.6500000 121.6219408 113.7219408  63.1200000
 121.2759408 110.9209408  82.3260000 121.5259408 110.2529408  81.6880000
 121.9619408 111.5849408  82.2600000 127.4129408 116.2019408  80.0570000
 127.4249408 116.6489408  79.2110000 128.2419408 116.4469408  80.4690000
 141.6459408 115.8579408  79.2480000 141.8839408 115.4889408  78.3980000
 141.1379408 115.1669408  79.6750000 146.5009408 113.4099408  63.8900000
 147.2679408 113.2959408  63.3290000 146.1529408 114.2679408  63.6490000
 132.1069408 118.3369408  82.1520000 132.8629408 118.3479408  82.7390000
 131.9139408 119.2609408  81.9920000 126.9049408 119.6589408  84.4020000
 127.4049408 119.1249408  85.0190000 127.5369408 119.8999408  83.7250000
 135.8789408  92.1039408  81.6990000 135.5149408  91.9559408  82.5720000
 136.7829408  91.7959408  81.7610000 128.8949408 111.6709408  79.8570000
 128.2309408 111.5909408  79.1720000 128.9859408 110.7849408  80.2080000
 139.3409408 109.3989408  80.3370000 139.0289408 109.1119408  79.4790000
 138.5439408 109.5879408  80.8320000 133.0649408  91.5539408  80.0000000
 133.9649408  91.6039408  80.3230000 132.9399408  90.6309408  79.7800000
 130.1359408 112.0139408  83.1660000 130.2959408 112.4989408  82.3560000
 130.9959408 111.9489408  83.5810000 138.4869408  98.0279408  61.6070000
 139.1999408  98.3819408  62.1380000 138.0509408  98.7999408  61.2450000
 134.4529408 110.9099408  63.7780000 134.3679408 110.7669408  62.8350000
 135.0229408 110.2019408  64.0770000 127.1399408 117.5469408  77.6840000
 126.8289408 117.2759408  76.8200000 126.5409408 118.2459408  77.9460000
 135.7979408 118.7229408  63.2530000 135.6619408 117.7969408  63.0530000
 135.1299408 119.1799408  62.7420000 129.0859408  91.1759408  61.1750000
 128.4019408  90.5059408  61.1510000 128.6729408  91.9539408  60.8020000
 128.0329408 119.1679408  70.5370000 128.6119408 118.8459408  71.2270000
 127.5109408 119.8489408  70.9610000 132.8329408 106.8609408  73.8650000
 132.4649408 105.9809408  73.9370000 132.1939408 107.3459408  73.3420000
 125.5019408  90.1759408  80.8970000 125.1519408  90.8029408  81.5300000
 125.3639408  89.3209408  81.3060000 134.6709408  97.7959408  65.3550000
 135.3629408  97.6749408  64.7050000 134.3999408  96.9069408  65.5840000
 132.2429408  96.3459408  67.8770000 133.0639408  95.9189408  67.6340000
 131.5769408  95.9019408  67.3520000 144.9609408 105.1169408  66.4150000
 144.0719408 105.3439408  66.1410000 145.4919408 105.8699408  66.1570000
 139.3769408  97.5459408  72.7920000 139.5639408  97.9789408  71.9590000
 138.9799408  98.2279408  73.3340000 149.9389408 102.9329408  80.1570000
 149.2409408 103.5489408  79.9330000 149.5489408 102.0699408  80.0180000
 143.4369408  98.0999408  74.6000000 143.0629408  98.4679408  73.7990000
 143.0709408  97.2169408  74.6520000 147.4789408  93.9939408  70.6530000
 147.3369408  94.2939408  69.7560000 147.7139408  93.0699408  70.5640000
 143.8419408  97.9109408  71.1330000 143.2649408  98.4849408  70.6300000
 144.5029408  97.6239408  70.5030000 144.1399408  91.3499408  70.9420000
 143.2239408  91.4689408  71.1920000 144.1099408  90.7419408  70.2040000
 120.0609408  96.7279408  77.5830000 120.7789408  97.3319408  77.7720000
 119.7179408  97.0209408  76.7390000 139.3879408 102.0239408  61.7080000
 138.4449408 102.1189408  61.5730000 139.5609408 101.0969408  61.5410000
 138.6229408  94.8899408  72.5080000 139.1929408  94.4829408  71.8550000
 138.9969408  95.7609408  72.6440000 148.2209408 113.3229408  74.8680000
 147.5639408 113.4529408  74.1850000 149.0359408 113.1649408  74.3900000
 147.7609408  92.7849408  63.9490000 148.2159408  92.0179408  63.6010000
 147.0409408  92.9349408  63.3370000 135.8699408  97.0169408  60.6600000
 135.2029408  96.8519408  61.3270000 136.4569408  97.6569408  61.0610000
 145.9399408  95.4359408  74.7680000 146.1589408  95.8389408  73.9280000
 145.7629408  94.5199408  74.5560000 145.4509408  96.9699408  65.4990000
 144.8859408  96.2069408  65.3780000 145.7639408  97.1789408  64.6180000
 120.4629408 112.8909408  73.2580000 120.2129408 111.9829408  73.0880000
 121.3599408 112.8359408  73.5870000 134.7979408 101.2589408  80.4950000
 134.1209408 101.7319408  80.0110000 135.3779408 101.9449408  80.8280000
 138.4659408 113.8039408  69.1880000 138.8379408 114.6159408  68.8460000
 138.9149408 113.1109408  68.7040000 136.7079408  97.0059408  63.8860000
 137.1969408  97.5149408  63.2390000 136.7849408  96.0999408  63.5860000
 125.6159408  93.9159408  77.9620000 126.1299408  93.4149408  78.5940000
 125.1099408  93.2559408  77.4870000 145.2969408  95.6169408  79.7390000
 146.1719408  95.2819408  79.5430000 144.9219408  95.8239408  78.8830000
 130.5079408  97.1349408  80.9140000 131.3479408  96.7929408  80.6060000
 130.6289408  97.2549408  81.8560000 125.4309408  98.9249408  73.3460000
 124.5449408  98.8439408  73.6980000 125.4069408  99.7229408  72.8170000
 149.5329408  90.6999408  63.3760000 150.1959408  90.7629408  62.6890000
 149.1429408  89.8339408  63.2540000 139.1209408 101.3209408  73.8360000
 138.7309408 101.3989408  72.9650000 138.7629408 102.0599408  74.3270000
 143.4509408 106.6139408  77.9200000 143.0099408 107.2459408  77.3520000
 142.8429408 106.4799408  78.6470000 121.2429408 115.3819408  71.0890000
 121.8839408 114.7989408  70.6820000 120.4409408 114.8619408  71.1370000
 120.5589408  93.4369408  62.1060000 120.9039408  93.9419408  61.3700000
 119.6199408  93.3699408  61.9320000 145.4529408 113.0009408  66.3470000
 146.1639408 112.5919408  66.8410000 145.8259408 113.1649408  65.4810000
 139.8289408 102.1619408  64.8400000 140.2879408 102.3219408  65.6640000
 139.5549408 103.0299408  64.5450000 145.5609408 101.1319408  75.4750000
 145.1189408 100.5969408  76.1340000 144.8589408 101.6419408  75.0700000
 121.6959408 104.5629408  65.6540000 121.0739408 104.5129408  64.9270000
 121.7619408 103.6639408  65.9750000 146.7429408  93.6139408  77.8620000
 146.4659408  94.0829408  77.0750000 146.0469408  92.9769408  78.0200000
 141.6259408 109.4869408  61.2030000 142.4039408 109.0829408  61.5860000
 141.3859408 110.1789408  61.8190000 149.2179408 113.7659408  65.8380000
 149.3659408 114.3189408  65.0710000 149.4309408 112.8809408  65.5410000
 141.2669408  90.7559408  68.5830000 141.3999408  91.0999408  69.4660000
 140.5919408  90.0849408  68.6870000 147.0209408  90.6149408  83.3560000
 146.1119408  90.3729408  83.1770000 147.4589408  89.7839408  83.5400000
 147.0549408 110.3509408  73.5330000 146.2059408 110.0659408  73.1960000
 147.4329408 109.5649408  73.9270000 143.3629408  95.0449408  71.8150000
 143.7649408  95.8809408  71.5770000 144.1039408  94.4649408  71.9930000
 144.9759408  91.0289408  80.1130000 144.6729408  91.3969408  79.2830000
 144.4759408  91.4979408  80.7810000 142.5319408 113.9129408  76.2690000
 143.3199408 113.8259408  76.8050000 142.8589408 114.0669408  75.3830000
 146.3219408  97.4929408  83.9420000 146.3019408  96.7529408  84.5480000
 147.1049408  97.9849408  84.1900000 120.1739408 101.8329408  71.6060000
 120.4409408 101.6049408  72.4960000 120.8999408 102.3529408  71.2630000
 145.7369408 109.1459408  68.1800000 144.8499408 109.1279408  68.5390000
 146.1869408 108.4239408  68.6170000 136.6539408  99.5689408  67.1000000
 136.2859408  99.1019408  66.3490000 137.5579408  99.2609408  67.1550000
 138.3429408 115.7469408  66.0430000 138.8659408 114.9999408  65.7510000
 137.5969408 115.7659408  65.4440000 124.7929408 115.8129408  65.2480000
 124.3529408 116.6369408  65.4600000 124.0799408 115.1949408  65.0880000
 145.7379408 116.5139408  76.0000000 145.5399408 115.6189408  75.7260000
 144.8859408 116.8929408  76.2160000 120.0309408  96.3349408  67.2890000
 119.4529408  95.8939408  66.6650000 120.7089408  96.7369408  66.7450000
 125.4109408  91.6389408  74.1010000 126.3529408  91.5459408  73.9540000
 125.1199408  92.2449408  73.4200000 132.0409408  93.7889408  60.3090000
 131.4489408  94.5119408  60.1020000 132.7159408  93.8299408  59.6310000
 144.4599408  92.0869408  77.5660000 144.6979408  92.1839408  76.6440000
 143.9199408  91.2969408  77.5930000 128.5499408  94.3989408  79.4280000
 129.1569408  94.0959408  80.1040000 127.8149408  93.7869408  79.4750000
 141.2339408  91.7299408  71.0500000 141.0569408  91.7479408  71.9900000
 141.0979408  92.6329408  70.7630000 142.1169408  96.2239408  76.4610000
 141.5759408  96.8179408  76.9810000 141.6809408  96.1839408  75.6100000
 147.9949408  91.5439408  69.2960000 147.6689408  90.7739408  69.7610000
 147.5859408  91.4939408  68.4320000 124.1849408 109.2609408  75.5620000
 123.2749408 109.4589408  75.3410000 124.2369408 109.3929408  76.5080000
 141.5719408 106.0879408  79.4610000 141.2589408 106.5549408  80.2350000
 142.0279408 105.3219408  79.8100000 144.5889408 102.8039408  78.0590000
 145.3309408 102.2919408  77.7360000 144.9889408 103.5189408  78.5550000
 122.6959408  94.0899408  81.8710000 122.3059408  93.5869408  81.1560000
 122.9999408  94.8979408  81.4560000 149.8669408 112.4849408  83.7190000
 150.5199408 112.0109408  83.2050000 149.1229408 112.5889408  83.1250000
 142.9719408 119.7709408  66.6800000 142.3179408 120.1079408  67.2920000
 143.6439408 119.3789408  67.2390000 132.1399408  97.4559408  72.2220000
 133.0799408  97.4309408  72.0430000 131.9669408  96.6499408  72.7080000
 142.2569408 102.3619408  71.4830000 141.7519408 103.1539408  71.2990000
 142.2079408 101.8529408  70.6740000 147.9939408  98.9349408  78.7130000
 148.8849408  98.7869408  79.0320000 147.4419408  98.4079408  79.2910000
 122.6369408  98.9269408  68.6340000 123.0599408  99.1289408  69.4690000
 121.7709408  99.3279408  68.7010000 121.9669408  98.2519408  78.4270000
 122.8179408  98.6559408  78.5950000 121.4089408  98.5619408  79.1400000
 147.5039408  95.9579408  72.6760000 147.6349408  95.1329408  72.2080000
 147.4329408  96.6169408  71.9850000 126.0659408  93.5049408  63.3350000
 125.7129408  94.3689408  63.5490000 125.3759408  93.0859408  62.8200000
 140.1629408  93.2489408  67.1740000 140.7889408  92.6829408  67.6270000
 139.4289408  93.3299408  67.7820000 136.8479408 119.6619408  70.6200000
 136.3209408 119.0759408  71.1630000 136.2789408 119.8849408  69.8840000
 125.8869408 100.2809408  65.3640000 125.6359408 100.8369408  66.1020000
 125.8729408 100.8659408  64.6070000 142.0509408 117.8479408  81.3780000
 142.2919408 117.3129408  80.6220000 142.4079408 118.7149408  81.1820000
 146.0049408 118.4509408  80.5770000 145.3879408 117.8689408  80.1320000
 145.6789408 119.3319408  80.3920000 135.9519408 105.9449408  60.6750000
 135.0699408 105.6069408  60.8280000 136.3909408 105.2529408  60.1800000
 142.1649408  97.7679408  68.6350000 143.0789408  97.4839408  68.6030000
 142.1279408  98.5239408  68.0490000 144.3869408 100.8979408  67.2380000
 144.6949408 101.3449408  68.0260000 145.0989408 101.0059408  66.6070000
 140.4669408 117.5979408  76.5020000 140.0149408 118.4079408  76.7400000
 139.9129408 116.9009408  76.8520000 137.1799408 114.4859408  71.5940000
 137.1339408 114.0919408  70.7230000 137.8769408 115.1389408  71.5260000
 147.1109408  97.9229408  70.7590000 146.6699408  98.6599408  71.1820000
 147.2859408  98.2279408  69.8680000 144.4309408  98.2329408  60.1660000
 144.9999408  98.8329408  59.6840000 144.9499408  97.9689408  60.9260000
 147.6649408 107.8339408  80.4340000 147.0099408 107.9209408  81.1270000
 147.7929408 108.7259408  80.1110000 140.4459408  95.7249408  65.9510000
 140.6899408  94.9389408  66.4390000 141.2809408  96.0999408  65.6680000
 124.0989408 107.2339408  80.9040000 123.5579408 107.6299408  80.2210000
 124.7849408 107.8809408  81.0720000 143.0409408 115.6989408  67.7480000
 142.2169408 116.1149408  67.4950000 143.0589408 114.8799408  67.2530000
 135.0709408  93.1099408  71.9730000 135.9309408  92.7019408  71.8700000
 134.5769408  92.4959408  72.5170000 121.2549408  96.8109408  74.1630000
 120.3669408  96.7379408  74.5100000 121.5479408  97.6809408  74.4330000
 121.2039408 108.3319408  68.1590000 121.7869408 108.4599408  68.9080000
 120.4139408 107.9419408  68.5330000 130.8509408 108.0429408  80.5640000
 131.5169408 107.8769408  79.8970000 130.6929408 107.1879408  80.9640000
 145.3289408 103.5029408  71.5810000 145.0329408 104.2309408  72.1270000
 146.1189408 103.1829408  72.0170000 147.1119408 117.8559408  74.3000000
 146.6299408 117.3489408  74.9530000 148.0099408 117.8809408  74.6300000
 144.7879408  92.1149408  65.8990000 144.1839408  91.3719408  65.9120000
 145.6579408  91.7159408  65.9040000 139.4179408 105.1679408  76.0930000
 140.2329408 104.6729408  76.0060000 139.6999408 106.0539408  76.3210000
 147.7659408 103.5989408  63.8470000 147.7389408 103.8419408  64.7720000
 147.9009408 104.4269408  63.3850000 125.1689408 104.5189408  76.3780000
 125.8409408 104.4369408  77.0540000 124.4199408 104.9079408  76.8290000
 144.5049408  93.7859408  68.3370000 144.6659408  93.1259408  67.6630000
 145.3689408  93.9629408  68.7110000 147.8919408 105.9599408  61.8140000
 147.0629408 105.4949408  61.6950000 148.2699408 106.0039408  60.9360000
 141.4209408  95.9589408  73.7260000 140.7449408  96.4539408  73.2630000
 142.0389408  95.6999408  73.0420000 124.4059408 100.8699408  61.0480000
 123.6999408 101.4429408  61.3470000 125.1239408 101.0339408  61.6600000
 137.9489408 107.1749408  71.2960000 137.9059408 106.2389408  71.0990000
 138.8179408 107.2979408  71.6800000 145.4809408 101.9639408  69.4060000
 145.1199408 102.5119408  70.1030000 146.2799408 101.5939408  69.7810000
 147.2379408  94.9699408  68.0610000 147.3909408  95.8909408  68.2740000
 147.5609408  94.8749408  67.1650000 136.7859408 108.4209408  61.6810000
 136.7219408 107.5299408  61.3370000 137.4129408 108.8559408  61.1040000
 142.8489408 103.5719408  79.9600000 143.5609408 103.2709408  79.3950000
 142.1069408 103.0129408  79.7290000 143.2589408  90.4689408  74.2250000
 143.7039408  89.7619408  73.7580000 143.9489408  91.1049408  74.4120000
 128.5139408 108.9249408  64.6940000 128.4449408 107.9949408  64.9100000
 127.8739408 109.0569408  63.9950000 120.9149408 102.1979408  63.5130000
 120.7669408 102.8599408  62.8380000 120.2449408 101.5339408  63.3490000
 136.2619408  95.6629408  71.8050000 137.1559408  95.3529408  71.9450000
 135.7269408  94.8699408  71.8260000 145.2609408  92.5219408  75.1500000
 146.1599408  92.1979408  75.2140000 145.1129408  92.6349408  74.2110000
 146.0369408  99.7699408  72.4210000 146.3529408  99.1019408  73.0300000
 145.0999408  99.8379408  72.6050000 143.0209408  98.4339408  63.5050000
 143.2149408  99.3699408  63.4500000 143.4379408  98.1499408  64.3190000
 138.3969408  91.7669408  64.5070000 138.1719408  91.0319408  65.0770000
 139.3529408  91.8069408  64.5340000 149.4079408 110.4649408  72.4830000
 148.5159408 110.4729408  72.8300000 149.2959408 110.4509408  71.5330000
 139.9099408  98.3669408  70.0660000 139.9099408  99.2509408  69.6990000
 140.6139408  97.9149408  69.6030000 142.3429408 107.8229408  73.7280000
 142.4789408 108.5569408  74.3260000 141.4959408 107.9999408  73.3180000
 138.5539408 108.9259408  84.6820000 138.7939408 108.2999408  85.3660000
 139.3529408 109.4279408  84.5250000 120.9789408 101.7839408  66.4660000
 120.8059408 101.5689408  65.5490000 120.8379408 100.9619408  66.9360000
 138.5449408  96.2349408  68.9460000 138.6869408  96.3049408  68.0020000
 138.8589408  97.0669408  69.2990000 137.5829408  92.1169408  71.6990000
 137.5359408  91.9249408  72.6360000 137.4419408  91.2719408  71.2740000
 143.0879408  96.0449408  62.2860000 143.1179408  96.9629408  62.5550000
 142.5769408  96.0479408  61.4770000 139.4299408 119.0179408  60.8690000
 140.3869408 119.0099408  60.8630000 139.1899408 118.4979408  61.6360000
 149.4029408 111.3029408  76.8030000 149.1189408 112.1149408  76.3830000
 150.2919408 111.4879408  77.1050000 127.9229408  90.9289408  67.0610000
 128.3859408  91.4039408  67.7510000 127.6119408  91.6119408  66.4670000
 146.0629408  96.2019408  62.8730000 146.7759408  96.4759408  62.2960000
 145.4759408  95.7009408  62.3070000 145.4119408 110.8149408  61.5320000
 145.4999408 110.9999408  60.5970000 146.2239408 110.3649408  61.7650000
 148.3659408  95.4669408  79.3010000 148.8039408  95.9929408  78.6320000
 148.0599408  94.6899408  78.8330000 140.9419408  94.3839408  77.7550000
 140.5819408  93.9059408  77.0080000 141.5239408  95.0359408  77.3640000
 149.4049408  99.7769408  61.2160000 149.7829408  99.6169408  60.3520000
 148.8879408  98.9919408  61.4010000 141.4199408 103.2069408  84.2540000
 141.6209408 102.3409408  84.6100000 141.2789408 103.0559408  83.3200000
 149.1759408 100.3779408  82.4850000 148.2839408 100.5879408  82.2080000
 149.0939408 100.1619408  83.4140000 147.5159408 101.6489408  78.8270000
 147.5849408 100.6959408  78.7670000 147.6049408 101.8379408  79.7610000
 148.1189408 103.0759408  83.9840000 148.7619408 102.6759408  84.5710000
 147.4529408 103.4369408  84.5690000 141.7639408 103.3609408  62.3840000
 141.7739408 103.7069408  61.4920000 140.9559408 102.8499408  62.4340000
 148.0309408 115.7699408  60.2010000 147.6519408 116.3839408  59.5710000
 148.7909408 116.2309408  60.5560000 122.9169408 100.2559408  82.9200000
 122.3259408 100.8239408  82.4250000 123.4999408 100.8599408  83.3800000
 141.1939408  94.9999408  84.4080000 140.3499408  95.2639408  84.7730000
 141.2559408  94.0639408  84.5980000 148.7599408 118.1839408  63.0480000
 148.8759408 117.2849408  63.3560000 149.4779408 118.3219408  62.4310000
 122.6489408  97.0719408  83.3300000 122.9159408  97.8839408  82.8980000
 122.1039408  96.6239408  82.6820000 142.4329408 114.4709408  60.8190000
 141.6569408 114.3989408  61.3750000 142.5059408 113.6149408  60.3970000
 147.0089408  97.7539408  80.9100000 147.1639408  97.5669408  81.8360000
 146.1749408  97.3249408  80.7160000 139.5569408 109.2589408  64.7920000
 139.8279408 108.5009408  64.2750000 139.5719408 109.9889408  64.1730000
 146.9399408 100.5709408  65.5480000 147.2969408 101.4359408  65.7460000
 147.5429408 100.2049408  64.9000000 142.1869408  97.3489408  83.2340000
 142.6329408  97.2299408  82.3960000 141.9849408  96.4599408  83.5270000
 143.0549408 116.8219408  75.9560000 142.1179408 116.8199408  76.1500000
 143.1779408 116.0819408  75.3610000 146.0829408 104.9759408  82.9120000
 146.8299408 104.5689408  82.4730000 146.1679408 104.7089408  83.8270000
 121.7139408  94.7479408  64.2270000 121.3929408  94.3309408  63.4270000
 121.0859408  94.4889408  64.9010000 146.7119408 118.8939408  61.2240000
 147.5319408 118.5429408  61.5710000 146.3319408 119.3829408  61.9540000
 144.2559408 113.5429408  78.3680000 144.2759408 112.7569408  78.9150000
 145.1489408 113.6239408  78.0320000 144.1759408 108.5089408  61.7660000
 144.5339408 109.3739408  61.5650000 144.8279408 108.1069408  62.3410000
 145.2449408 105.1359408  79.2390000 144.6809408 105.3399408  79.9860000
 145.0279408 105.8009408  78.5860000 147.8889408  92.9389408  60.7890000
 147.1389408  92.3659408  60.9500000 147.5709408  93.8159408  61.0000000
 137.5889408  95.9449408  81.8650000 137.9269408  95.0509408  81.9150000
 138.2399408  96.4199408  81.3480000 140.0679408  96.6019408  80.6770000
 140.4109408  95.7399408  80.4420000 140.8469408  97.1369408  80.8290000
 149.4139408  93.1659408  76.0720000 149.2369408  92.3849408  76.5970000
 148.9069408  93.8589408  76.4960000 137.8799408  97.6249408  84.1220000
 137.7579408  96.6759408  84.0920000 137.0159408  97.9709408  84.3480000
 144.0009408  94.7069408  65.0710000 143.8849408  94.5229408  64.1390000
 144.2479408  93.8649408  65.4530000 148.6979408  94.9809408  83.9730000
 149.2289408  95.6649408  84.3820000 149.2709408  94.2149408  83.9480000
 129.8899408 101.8059408  77.1790000 130.2009408 101.2239408  77.8720000
 130.1229408 101.3559408  76.3660000 122.2539408 105.9619408  84.7120000
 121.4929408 105.4689408  84.4070000 123.0069408 105.4519408  84.4130000
 140.0029408  99.2039408  83.4090000 140.8009408  98.6759408  83.4560000
 139.3039408  98.6049408  83.6730000 143.6059408 102.7209408  74.1930000
 143.3069408 102.6279408  73.2890000 143.8659408 103.6389408  74.2670000
 143.0969408  97.0939408  80.7320000 143.5719408  97.7899408  80.2780000
 143.5829408  96.2959408  80.5220000 141.2829408  94.2129408  70.2370000
 142.1709408  94.4309408  70.5200000 140.9569408  95.0169408  69.8310000
 125.2779408 101.5559408  67.5480000 124.8449408 100.9229408  68.1220000
 125.5749408 102.2489408  68.1370000 146.9689408 116.1229408  82.1750000
 147.8909408 116.2139408  82.4190000 146.8059408 116.8519408  81.5770000
 120.5089408  99.7659408  73.8980000 119.8269408  99.7809408  74.5700000
 120.2249408  99.0889408  73.2830000 142.0069408 103.9469408  76.1180000
 142.6479408 103.3789408  75.6900000 142.4899408 104.3509408  76.8390000
 144.1139408  93.7159408  81.1230000 144.5879408  94.4759408  80.7840000
 144.5419408  93.5189408  81.9560000 133.7419408  96.4529408  75.6390000
 134.2449408  96.8479408  74.9270000 133.4279408  97.1979408  76.1520000
 123.9139408 104.3159408  80.0960000 123.3239408 105.0459408  80.2810000
 123.8699408 104.2069408  79.1460000 139.3529408  99.0949408  79.9650000
 138.9699408  99.8979408  80.3180000 139.1119408  98.4159408  80.5960000
 137.2159408  92.2419408  74.2630000 137.4569408  91.6839408  75.0030000
 136.9959408  93.0849408  74.6600000 126.1759408  93.6459408  83.8610000
 127.0319408  93.4339408  84.2340000 125.6269408  93.8449408  84.6190000
 120.6509408 104.1239408  83.5250000 119.7119408 103.9479408  83.5810000
 120.9809408 103.4709408  82.9080000 122.0539408 102.5049408  81.6720000
 122.7779408 103.0489408  81.3630000 121.3189408 102.7389408  81.1060000
 147.4739408  98.2959408  67.3770000 147.0789408  99.0559408  66.9490000
 147.4529408  97.6089408  66.7110000 124.6389408  98.2059408  60.3610000
 124.5499408  99.1419408  60.5400000 125.5799408  98.0399408  60.4160000
 123.5789408  95.2939408  74.7230000 124.2869408  95.7469408  74.2640000
 122.8469408  95.9109408  74.7040000 134.3679408  98.5949408  80.4910000
 134.4269408  99.5469408  80.5680000 134.3979408  98.4279408  79.5490000
 122.4339408 119.4479408  81.3220000 121.7669408 118.7629408  81.3040000
 122.1439408 120.0829408  80.6670000 139.6399408 107.0629408  81.6660000
 140.2749408 107.2579408  82.3550000 139.4069408 107.9179408  81.3040000
 147.1349408 102.3819408  81.4320000 146.3539408 101.8949408  81.6950000
 147.7049408 102.3559408  82.2000000 121.7099408  94.5589408  77.3620000
 121.2679408  94.1129408  76.6390000 121.0809408  95.2169408  77.6580000
 123.7859408  93.1389408  65.5410000 124.7399408  93.2159408  65.5740000
 123.5029408  93.8839408  65.0110000 142.3099408 100.3559408  81.7640000
 141.7209408 101.1059408  81.6740000 141.7629408  99.6659408  82.1410000
 148.6129408 110.5529408  80.3810000 149.2029408 110.8629408  81.0670000
 148.5069408 111.3039408  79.7970000 138.5159408 115.7009408  60.7170000
 138.6129408 116.6029408  61.0230000 139.1969408 115.5999408  60.0510000
 144.3199408 105.3179408  73.4330000 143.7379408 106.0469408  73.2200000
 144.8819408 105.6559408  74.1310000 142.5469408 105.5769408  64.2880000
 141.8889408 106.0879408  63.8160000 142.4899408 104.7009408  63.9070000
 139.5539408  90.0589408  77.2370000 139.8519408  90.3489408  76.3750000
 138.6799408  90.4369408  77.3290000 144.5779408 116.1839408  79.7680000
 145.3119408 115.7339408  79.3490000 143.8019408 115.8429408  79.3220000
 141.9709408 119.7309408  64.2900000 141.4919408 120.5529408  64.3860000
 142.2929408 119.5359408  65.1700000 139.7779408 113.9979408  73.5600000
 140.2779408 114.1409408  72.7560000 140.3799408 113.5269408  74.1360000
 136.2369408  92.5929408  67.0360000 136.4979408  91.7169408  66.7530000
 137.0569408  93.0199408  67.2820000 137.8549408  93.6489408  68.8230000
 138.0219408  94.5789408  68.9790000 137.6949408  93.2839408  69.6930000
 140.3289408 114.1079408  62.8240000 139.6049408 114.5969408  62.4350000
 140.2499408 114.2699408  63.7640000 141.6989408  90.0119408  79.4060000
 142.3109408  89.7979408  78.7010000 140.9559408  90.4209408  78.9620000
 147.1489408 111.4149408  68.1260000 147.0169408 111.9989408  68.8730000
 146.3659408 110.8649408  68.1090000 141.1139408  92.1109408  64.7390000
 141.1109408  92.6599408  65.5240000 141.5609408  92.6399408  64.0780000
 142.0079408 100.1399408  76.2200000 141.9829408 100.3189408  75.2790000
 142.8879408  99.7949408  76.3750000 136.6089408 108.0909408  73.3550000
 136.7289408 107.5009408  72.6110000 137.4469408 108.5439408  73.4390000
 147.8639408 107.4319408  69.3610000 147.7469408 107.2979408  70.3010000
 148.3079408 108.2779408  69.2930000 121.0329408 115.6039408  73.9710000
 120.2089408 115.2399408  74.2930000 121.2309408 115.0919408  73.1870000
 121.9339408 119.6879408  78.6420000 122.2469408 118.7839408  78.6550000
 121.5109408 119.7829408  77.7880000 121.1559408 108.4609408  80.0400000
 120.2709408 108.7809408  79.8660000 121.0349408 107.5459408  80.2950000
 122.0799408 118.3339408  63.5080000 121.6479408 118.7749408  62.7770000
 122.4669408 119.0439408  64.0210000 137.4589408 109.6149408  66.9330000
 136.5709408 109.2699408  67.0270000 137.7209408 109.3639408  66.0470000
 146.6749408 107.5639408  73.5590000 146.2789408 107.7839408  74.4030000
 146.8119408 106.6169408  73.5990000 139.9319408 113.5469408  65.4520000
 139.4589408 112.7149408  65.4690000 140.8459408 113.3059408  65.6030000
 143.0439408 111.6259408  73.4910000 142.5689408 111.6099408  72.6600000
 143.9519408 111.4399408  73.2520000 141.5259408 117.0239408  63.9340000
 141.8329408 116.7029408  63.0860000 141.8009408 117.9409408  63.9570000
 142.5659408 113.1829408  66.2490000 142.5139408 112.3989408  66.7960000
 143.4839408 113.2299408  65.9820000 122.7359408 113.2419408  81.7040000
 122.8889408 113.6109408  80.8350000 122.5469408 113.9999408  82.2570000
 145.2289408  93.2469408  72.4100000 144.8559408  92.6399408  71.7710000
 146.0849408  93.4789408  72.0500000 123.0529408 116.7679408  75.5720000
 122.4119408 116.2939408  75.0430000 123.1159408 117.6289408  75.1590000
 144.1119408 111.8259408  63.7350000 144.7569408 112.4489408  64.0690000
 144.4369408 111.5849408  62.8680000 145.3229408 106.5199408  63.7300000
 145.4299408 105.8639408  63.0410000 144.4889408 106.2979408  64.1450000
 145.6729408 110.8899408  83.2500000 145.9379408 111.6929408  82.8020000
 145.0279408 110.4909408  82.6670000 148.0719408 105.0429408  74.1250000
 148.3279408 104.1539408  73.8810000 148.7059408 105.6059408  73.6790000
 141.4969408 107.6769408  68.9910000 140.6869408 107.9649408  69.4120000
 141.2069408 107.1699408  68.2330000 141.3089408 111.2979408  70.9070000
 140.3719408 111.3809408  71.0840000 141.3559408 110.9219408  70.0280000
 142.7679408 109.3119408  77.3790000 142.3009408 110.0629408  77.0110000
 143.4259408 109.6989408  77.9570000 139.7129408 111.5399408  67.5910000
 139.1179408 110.8719408  67.2500000 140.5109408 111.0599408  67.8100000
 143.7039408 107.7479408  70.5130000 144.1529408 106.9339408  70.2860000
 142.9529408 107.7799408  69.9200000 147.4709408 115.8359408  66.5070000
 147.7579408 114.9329408  66.6370000 147.3959408 115.9299408  65.5570000
 147.1539408 115.2229408  78.8610000 147.2309408 114.5909408  78.1470000
 147.9429408 115.7599408  78.7930000 148.9979408 105.2499408  77.3840000
 148.6679408 105.0439408  78.2580000 148.5579408 104.6249408  76.8080000
 137.0249408 112.7099408  77.6690000 136.8809408 112.0149408  77.0260000
 136.7759408 113.5139408  77.2140000 145.5159408  92.1409408  62.2740000
 144.6969408  92.6339408  62.2290000 145.2789408  91.3189408  62.7030000
 147.8379408 106.4779408  64.9610000 147.1649408 106.4449408  64.2810000
 148.2269408 107.3489408  64.8720000 138.1619408 101.4479408  78.1310000
 138.1129408 101.6889408  79.0560000 139.0279408 101.7449408  77.8520000
 131.7949408  94.1809408  75.4660000 131.0579408  94.3869408  76.0420000
 132.4969408  94.7619408  75.7580000 144.6279408 119.7129408  63.2650000
 143.6809408 119.5999408  63.3410000 144.9819408 119.3039408  64.0550000
 144.1549408 118.4689408  68.6710000 144.9869408 117.9959408  68.6860000
 143.5239408 117.8559408  69.0480000 147.6299408 118.3429408  67.5860000
 147.5669408 117.3909408  67.5050000 147.5549408 118.5079408  68.5260000
 146.7179408 113.2369408  77.1170000 147.0469408 113.5299408  76.2670000
 146.4409408 112.3329408  76.9690000 148.6429408 113.4169408  62.1320000
 149.5469408 113.7219408  62.2000000 148.2299408 114.0239408  61.5180000
 138.1019408 119.3339408  73.8490000 138.8249408 119.9569408  73.9170000
 138.5209408 118.5029408  73.6270000 120.8829408 105.8929408  80.9960000
 121.0199408 105.6469408  81.9110000 120.0429408 105.4959408  80.7640000
 149.7119408 117.0349408  78.1520000 149.5509408 117.4989408  77.3300000
 149.2639408 117.5589408  78.8150000 127.1339408 113.6299408  77.5170000
 126.9599408 114.4419408  77.0430000 127.4829408 113.0339408  76.8540000
 124.8129408 110.6049408  80.3340000 124.8989408 111.5329408  80.5520000
 124.8869408 110.1529408  81.1740000 145.3029408 116.0099408  71.7730000
 145.0519408 115.5969408  70.9470000 144.6769408 116.7259408  71.8830000
 135.4609408 113.4619408  63.0360000 135.9439408 113.2799408  62.2300000
 135.3659408 112.6069408  63.4560000 133.5109408 117.9189408  75.3630000
 134.4469408 117.8499408  75.5500000 133.2639408 117.0499408  75.0470000
 145.1669408 115.1589408  61.8110000 144.2559408 114.8679408  61.8270000
 145.3879408 115.2049408  60.8810000 141.1539408 117.1659408  66.5480000
 141.4189408 116.9389408  65.6570000 141.5359408 118.0299408  66.7000000
 136.0469408  94.5639408  75.7710000 136.0809408  94.5099408  76.7260000
 135.4529408  95.2939408  75.5940000 122.8799408 117.4629408  72.2670000
 122.0239408 117.0379408  72.2150000 123.2679408 117.3299408  71.4030000
 148.6919408 109.2009408  63.8620000 149.5599408 108.8229408  63.7170000
 148.1619408 108.8679408  63.1380000 147.3199408 108.8899408  61.5420000
 147.8129408 109.1749408  60.7720000 147.3469408 107.9339408  61.5040000
 120.1709408 115.8719408  63.6420000 120.6029408 115.3299408  62.9810000
 120.8439408 116.4929408  63.9200000 141.9069408 110.2649408  68.2860000
 141.7919408 109.3209408  68.3890000 142.4119408 110.3589408  67.4790000
 140.8209408 115.7819408  71.5460000 140.6039408 115.9449408  70.6280000
 140.7959408 116.6459408  71.9560000 147.3569408  91.1799408  66.2670000
 147.6309408  91.6629408  65.4870000 148.0139408  90.4909408  66.3660000
 138.4929408 110.8929408  71.3400000 138.2899408 110.2629408  70.6490000
 137.8709408 111.6069408  71.2050000 147.5929408 118.9229408  70.4380000
 147.4519408 119.3709408  71.2720000 148.5019408 118.6269408  70.4740000
 120.6229408 115.0849408  79.8260000 121.5509408 114.8679408  79.9130000
 120.5909408 115.7159408  79.1080000 149.5049408  99.6089408  63.9390000
 149.2369408  99.4409408  63.0360000 150.3389408  99.1489408  64.0320000
 144.9399408 118.5519408  72.8940000 145.6679408 118.0659408  73.2810000
 145.3499408 119.3119408  72.4820000 146.2609408 110.5759408  76.5330000
 145.9599408 109.7359408  76.1870000 147.1519408 110.4039408  76.8380000
 120.9209408 119.9589408  69.9480000 121.4189408 119.3979408  69.3520000
 120.0779408 120.0829408  69.5120000 120.1289408  90.2789408  66.1440000
 120.1339408  90.2069408  65.1890000 120.6739408  89.5509408  66.4420000
 140.1059408 116.3139408  68.9570000 140.3829408 116.3689408  68.0430000
 139.8789408 117.2129408  69.1940000 137.8029408  91.4979408  62.0150000
 137.8179408  91.3079408  62.9530000 137.9959408  90.6579408  61.5970000
 141.2849408 111.4409408  63.2030000 142.1909408 111.6019408  63.4660000
 140.9289408 112.3109408  63.0260000 144.8339408 108.1349408  75.5300000
 145.1179408 107.2749408  75.8380000 144.2629408 108.4619408  76.2250000
 145.9399408 113.0769408  70.1740000 145.0409408 112.8989408  70.4490000
 145.8779408 113.8789408  69.6550000 120.5509408 113.0329408  68.3860000
 120.1859408 113.4379408  67.6000000 119.8569408 113.1109408  69.0410000
 139.0939408 115.2559408  77.6310000 138.8449408 115.5209408  78.5160000
 138.5189408 114.5169408  77.4310000 144.6889408 116.4959408  83.9890000
 145.4609408 116.4079408  83.4300000 144.0209408 115.9579408  83.5630000
 139.7889408 117.3129408  83.2930000 140.5389408 117.1429408  82.7230000
 139.6029408 118.2449408  83.1720000 146.0789408 118.6559408  65.3270000
 146.5179408 118.9459408  66.1270000 146.5309408 117.8469408  65.0860000
 141.9989408 117.5469408  61.0180000 142.9239408 117.6119408  60.7810000
 141.7279408 116.6889408  60.6910000 137.6129408 110.7449408  63.2240000
 137.4149408 109.8939408  62.8320000 137.7729408 111.3209408  62.4770000
 148.7029408 113.2359408  80.3090000 149.5569408 113.6369408  80.1500000
 148.0819408 113.8059408  79.8540000 139.1839408 112.3919408  79.3730000
 138.8759408 112.0519408  80.2130000 138.3959408 112.4469408  78.8330000
 142.4529408 112.8319408  84.3870000 143.2899408 113.2969408  84.4070000
 141.9209408 113.3219408  83.7600000 149.3329408 110.1069408  69.6110000
 150.1389408 110.5079408  69.2850000 148.7129408 110.1949408  68.8870000
 149.7389408  91.2499408  82.7270000 149.9719408  90.5979408  82.0660000
 148.7969408  91.1349408  82.8560000 146.4519408 108.2429408  83.9800000
 146.5979408 109.0739408  83.5290000 145.5169408 108.0689408  83.8690000
 122.8429408 115.7119408  83.1490000 123.7689408 115.4969408  83.0340000
 122.8479408 116.5679408  83.5780000 148.0669408 105.0089408  80.1910000
 148.0739408 105.9439408  79.9830000 147.1889408 104.8459408  80.5340000
 149.9059408 118.0329408  81.8660000 149.3759408 118.3819408  82.5830000
 150.0419408 117.1129408  82.0930000 140.8229408 110.4389408  84.5460000
 141.4419408 111.1659408  84.6110000 140.8099408 110.2179408  83.6140000
 123.7959408  92.6399408  61.5360000 123.1589408  93.0979408  60.9870000
 123.2689408  92.0539408  62.0780000 144.2699408 119.2149408  84.6630000
 144.2869408 118.9489408  85.5820000 144.4699408 118.4149408  84.1780000
 140.7379408  93.9019408  80.2470000 140.8629408  93.9519408  79.3000000
 141.6089408  94.0529408  80.6130000 149.0199408 118.8129408  84.3330000
 149.8619408 119.1639408  84.6250000 148.8459408 118.0819408  84.9260000
 146.1579408 116.4039408  63.9090000 145.6669408 117.2129408  64.0520000
 145.8099408 116.0549408  63.0890000 137.0399408 118.4119408  84.8180000
 137.5809408 118.5059408  85.6020000 137.1749408 117.5059408  84.5410000
 143.6199408 114.9529408  82.0760000 142.8519408 114.5989408  81.6270000
 144.1499408 115.3379408  81.3780000 141.2529408 113.5169408  80.7880000
 140.5179408 113.0819408  80.3570000 140.8559408 113.9929408  81.5170000
 123.1729408 119.6979408  83.8650000 122.8949408 119.4999408  82.9710000
 123.6089408 120.5479408  83.7990000 144.4219408  99.4159408  80.1160000
 145.2529408  99.6309408  80.5400000 143.7539408  99.7569408  80.7110000
 122.7039408 111.1609408  60.5350000 121.8629408 111.6189408  60.5440000
 122.8899408 111.0209408  59.6060000 138.5739408 116.5729408  79.9790000
 139.3969408 117.0059408  80.2050000 137.9349408 116.9379408  80.5900000
 143.9579408  91.6669408  83.3620000 143.0839408  91.9459408  83.6370000
 144.0009408  90.7409408  83.6010000 143.5929408 110.4459408  66.1030000
 144.4549408 110.0469408  66.2220000 143.6239408 110.8299408  65.2270000
 141.0189408 111.9559408  77.3460000 140.6409408 112.0609408  78.2200000
 141.4569408 112.7889408  77.1720000 149.3579408  96.4659408  81.7420000
 148.9689408  96.1709408  80.9190000 149.0259408  95.8529408  82.3980000
 142.3159408  90.6029408  60.0200000 142.8489408  90.3259408  60.7650000
 142.9519408  90.8169408  59.3370000 122.0639408  92.4419408  79.6400000
 122.0359408  93.1009408  78.9460000 121.3919408  91.8059408  79.3950000
 136.0279408 119.2599408  78.5900000 135.0909408 119.1729408  78.4130000
 136.1359408 118.9249408  79.4800000 140.3859408 114.2079408  83.2040000
 140.0829408 115.1069408  83.3300000 139.8389408 113.6859408  83.7910000
 120.8689408  96.2169408  60.9050000 121.1979408  96.6709408  60.1290000
 121.6129408  96.1979408  61.5060000 130.0009408 116.2329408  81.9690000
 130.8279408 115.7619408  82.0740000 130.2609408 117.1449408  81.8330000
 133.1139408 119.2469408  78.1040000 133.4209408 118.6579408  77.4150000
 132.3449408 119.6749408  77.7280000 124.1209408 133.6749408  13.7610000
 124.0209408 134.4239408  14.3480000 124.6659408 133.0579408  14.2490000
 139.4019408 137.0039408   3.4620000 139.3069408 136.1259408   3.8320000
 138.6369408 137.1089408   2.8970000 141.2879408 125.2629408  29.9310000
 140.5409408 124.9539408  30.4440000 140.9199408 125.9259408  29.3470000
 126.9639408 147.2739408   4.1330000 126.2589408 146.7169408   4.4630000
 126.9889408 148.0129408   4.7410000 141.1249408 121.1489408  21.7350000
 140.9649408 120.2999408  21.3230000 141.6349408 121.6379408  21.0890000
 126.7109408 138.7099408  21.4700000 126.3839408 139.3649408  22.0880000
 127.6529408 138.8729408  21.4250000 131.8849408 131.9679408  12.0810000
 131.2899408 131.2449408  12.2800000 132.7569408 131.5759408  12.1090000
 125.8789408 126.9689408   8.7010000 125.4139408 126.1719408   8.4480000
 125.9029408 127.4959408   7.9020000 135.1049408 137.8279408  15.6050000
 134.2939408 137.6459408  15.1300000 135.7899408 137.7719408  14.9380000
 120.6359408 134.0729408   8.5360000 119.8129408 134.3929408   8.1640000
 120.9089408 133.3719408   7.9450000 138.8559408 138.6129408   9.2840000
 138.4689408 138.1719408  10.0410000 138.1489408 139.1559408   8.9360000
 129.0639408 128.6819408  17.8260000 128.4579408 128.2489408  18.4280000
 129.3939408 127.9759408  17.2700000 131.2259408 131.3479408   5.7040000
 130.6419408 131.7979408   6.3140000 131.6789408 130.6969408   6.2400000
 137.4669408 135.2269408  17.9080000 137.9479408 135.1439408  18.7320000
 138.1319408 135.1079408  17.2300000 142.0799408 129.5039408   6.3360000
 141.9909408 129.7379408   5.4120000 142.7389408 130.1109408   6.6740000
 125.6149408 133.6859408   8.9500000 125.7649408 133.7169408   9.8950000
 124.7539408 134.0859408   8.8300000 149.3079408 138.9599408  15.2020000
 149.6479408 139.5329408  15.8900000 149.8979408 139.0979408  14.4610000
 122.5329408 127.1629408  28.8470000 123.2739408 127.5749408  29.2930000
 122.8629408 126.9599408  27.9720000 132.9309408 145.5519408  14.1980000
 133.8639408 145.3599408  14.1090000 132.5239408 145.1209408  13.4470000
 148.0369408 125.5629408   5.5490000 147.0969408 125.6829408   5.4130000
 148.2159408 124.6789408   5.2300000 138.3629408 141.3589408   0.6810000
 137.7089408 142.0489408   0.5670000 138.2789408 140.8169408  -0.1030000
 130.6849408 135.9839408   6.6650000 131.1339408 136.8249408   6.7490000
 129.8769408 136.0929408   7.1670000 138.4319408 124.8569408  25.0460000
 138.1149408 124.5139408  25.8810000 138.3719408 124.1159408  24.4430000
 148.7999408 129.9389408  15.7730000 147.8609408 129.9999408  15.5990000
 148.8569408 129.5959408  16.6650000 122.3889408 140.7699408   3.8460000
 123.1819408 141.3059408   3.8470000 122.6729408 139.9199408   4.1820000
 137.9779408 134.4559408  10.6650000 137.2519408 134.3639408  10.0480000
 137.7039408 133.9559408  11.4340000 129.6549408 144.0029408  30.1860000
 129.0479408 144.5939408  29.7410000 130.5229408 144.3469408  29.9750000
 133.5299408 134.6779408   0.5350000 132.9009408 133.9769408   0.7060000
 133.0779408 135.2629408  -0.0730000 136.9329408 142.0279408  13.3670000
 137.2779408 142.9039408  13.1980000 137.6629408 141.4399408  13.1730000
 124.4319408 148.7859408  26.2340000 124.8979408 148.1089408  25.7430000
 123.7839408 149.1269408  25.6170000 131.7599408 143.1179408   8.5430000
 131.6899408 143.8819408   7.9720000 132.0759408 142.4179408   7.9710000
 134.5309408 146.0489408   1.8910000 135.1549408 146.0429408   1.1650000
 134.9719408 145.5639408   2.5890000 121.5889408 127.8679408   5.1380000
 121.9129408 127.0799408   4.7030000 122.3749408 128.2939408   5.4810000
 124.3779408 121.6949408  16.6380000 123.4469408 121.8319408  16.4640000
 124.7679408 121.5709408  15.7730000 136.9779408 134.3809408  28.3850000
 137.8199408 133.9829408  28.6060000 137.1409408 134.8459408  27.5640000
 131.0189408 122.1809408  18.1460000 130.7569408 123.1019408  18.1390000
 131.6919408 122.1279408  18.8240000 135.1549408 120.6799408   8.8720000
 134.7649408 121.4279408   8.4200000 135.0899408 119.9599408   8.2450000
 135.4189408 134.0349408  13.0950000 134.8099408 133.9809408  13.8320000
 134.8679408 134.2559408  12.3440000 126.8749408 146.9259408   9.7580000
 127.0919408 147.8089408  10.0560000 127.0169408 146.9499408   8.8120000
 132.2769408 129.0759408  26.9600000 131.8759408 129.8269408  26.5240000
 132.9859408 129.4519408  27.4820000 148.5349408 135.5709408   7.6430000
 148.4489408 136.1489408   6.8850000 148.1879408 136.0809408   8.3750000
 128.3539408 126.3839408   3.5020000 129.0179408 126.9059408   3.0520000
 127.9879408 126.9769408   4.1590000 144.3849408 129.4109408  17.3650000
 144.7209408 128.5179408  17.2950000 144.2909408 129.5589408  18.3060000
 127.7939408 133.7699408   7.0920000 127.1589408 133.5089408   7.7590000
 128.3649408 133.0079408   6.9930000 129.0859408 122.8069408  12.3010000
 129.2659408 123.2629408  11.4790000 129.7729408 123.1059408  12.8980000
 135.8509408 133.9929408   9.0110000 135.1649408 134.5659408   8.6690000
 135.4019408 133.1709408   9.2080000 127.6489408 137.3009408  12.5020000
 127.1329408 137.8939408  13.0490000 127.6139408 136.4609408  12.9600000
 142.4549408 123.6049408   2.6640000 141.6819408 123.5749408   2.1000000
 142.7979408 124.4919408   2.5530000 141.2289408 140.5009408  14.9470000
 140.8759408 141.0379408  15.6570000 141.9479408 141.0209408  14.5870000
 127.2079408 128.2029408  29.8520000 127.3599408 128.7419408  30.6280000
 128.0649408 128.1409408  29.4310000 130.4099408 145.8839408  26.7950000
 130.4019408 146.2829408  25.9250000 129.6159408 146.2129408  27.2170000
 131.1919408 146.2969408   1.5580000 131.2509408 147.2469408   1.6600000
 131.6389408 145.9449408   2.3270000 124.6869408 123.6109408  12.3470000
 123.8339408 123.9499408  12.0730000 125.2309408 124.3909408  12.4540000
 133.1469408 132.3189408  27.0580000 133.5739408 132.0469408  26.2450000
 133.8619408 132.4039408  27.6880000 131.3659408 140.8169408  12.9800000
 131.3449408 141.5859408  12.4090000 132.2869408 140.5579408  12.9990000
 135.5709408 124.5019408  23.2080000 136.1229408 125.1429408  22.7600000
 135.2669408 123.9189408  22.5130000 134.5329408 139.5259408   7.8070000
 134.0209408 138.9609408   8.3850000 133.9069408 140.1799408   7.4950000
 124.9169408 134.0799408   6.0540000 125.2429408 133.2809408   6.4690000
 124.3959408 134.5079408   6.7330000 131.9419408 124.9309408  18.4310000
 132.8109408 125.3169408  18.3240000 131.7659408 124.9919408  19.3700000
 122.9999408 143.7209408   4.9930000 122.5599408 143.1309408   5.6050000
 123.7909408 143.2499408   4.7310000 129.3909408 125.9979408  13.5600000
 128.4679408 125.8209408  13.7410000 129.5449408 125.6099408  12.6990000
 126.4589408 139.0469408  14.2110000 125.7969408 138.9559408  14.8960000
 127.0899408 139.6709408  14.5690000 132.7269408 124.7419408  13.0350000
 133.5559408 124.2759408  12.9230000 132.3699408 124.4009408  13.8560000
 130.9189408 135.5149408  11.9010000 130.0709408 135.1079408  11.7250000
 130.7289408 136.4519408  11.9560000 131.2779408 128.6519408   9.3500000
 131.3409408 127.9429408   9.9910000 130.6729408 129.2789408   9.7440000
 127.3769408 148.8119408   1.6800000 126.6809408 148.2869408   1.2850000
 127.2869408 148.6599408   2.6210000 135.6899408 138.6069408   4.5490000
 135.8669408 138.6029408   3.6090000 136.2479408 137.9129408   4.9010000
 126.0069408 120.8799408   4.4630000 126.8559408 120.4709408   4.2940000
 126.1609408 121.8149408   4.3310000 129.4119408 128.7209408   6.5640000
 129.9009408 128.4549408   7.3430000 130.0189408 129.2819408   6.0810000
 130.9679408 138.3959408  15.9660000 131.6029408 137.8829408  15.4660000
 130.1389408 137.9329408  15.8490000 129.0729408 130.0809408   9.9790000
 129.3089408 130.3209408  10.8750000 128.1399408 129.8699408  10.0250000
 128.6629408 143.0849408   5.7270000 129.1639408 142.7029408   6.4480000
 129.3049408 143.2099408   5.0280000 132.1909408 123.0269408   6.6490000
 132.5829408 123.5069408   7.3790000 132.8259408 122.3399408   6.4440000
 123.7929408 125.9289408  18.5460000 124.5359408 125.3939408  18.2680000
 123.0419408 125.5539408  18.0850000 127.2649408 125.4869408  10.7700000
 126.6499408 126.0649408  10.3180000 127.6409408 124.9459408  10.0760000
 124.4899408 124.3149408   8.6110000 123.8189408 123.6769408   8.8510000
 124.7519408 124.0669408   7.7250000 138.2059408 131.1969408  11.0920000
 138.7899408 131.1579408  10.3350000 137.3289408 131.0939408  10.7250000
 132.6159408 122.7419408   2.6460000 132.2479408 123.1119408   1.8440000
 133.2749408 123.3789408   2.9240000 143.6789408 139.2509408  25.6230000
 142.9449408 138.9459408  26.1550000 144.0749408 139.9529408  26.1400000
 123.9959408 130.0319408  19.2360000 124.7059408 129.4889408  18.8920000
 124.1359408 130.8909408  18.8370000 133.6049408 129.6929408   3.1680000
 134.0819408 128.9459408   3.5280000 134.2209408 130.4239408   3.2310000
 130.6809408 131.2849408   0.4750000 130.9629408 131.9649408  -0.1370000
 130.5939408 131.7389408   1.3140000 126.1979408 148.7859408   7.3920000
 125.6229408 149.3219408   7.9370000 126.9389408 149.3569408   7.1890000
 135.6389408 126.6119408   8.9870000 135.6199408 126.6119408   9.9440000
 136.5409408 126.8459408   8.7660000 136.1629408 140.3279408   9.8410000
 135.8969408 140.1039408   8.9500000 135.7949408 139.6309408  10.3840000
 138.8369408 139.6889408  13.6890000 139.6529408 139.8079408  14.1740000
 139.0429408 139.9709408  12.7980000 127.3569408 134.9479408  14.1060000
 126.7409408 134.6609408  14.7800000 127.7119408 134.1349408  13.7450000
 142.1589408 131.9809408   8.6940000 142.2029408 132.9319408   8.6020000
 142.8179408 131.6489408   8.0840000 121.5759408 121.8369408  12.3790000
 121.6699408 121.3979408  11.5340000 121.7809408 122.7539408  12.1980000
 129.7979408 133.5629408  20.7020000 129.9119408 132.6129408  20.6900000
 130.2249408 133.8659408  19.9000000 125.8779408 131.1339408  28.3530000
 126.6849408 131.2089408  28.8610000 125.1959408 130.9759408  29.0060000
 132.6309408 133.1459408  14.3340000 132.2629408 133.3379408  13.4710000
 132.9819408 132.2589408  14.2530000 130.1429408 128.5439408   2.9460000
 130.7999408 128.6049408   2.2530000 130.5939408 128.8529408   3.7320000
 124.7069408 135.4199408  23.1280000 124.5639408 135.8999408  22.3120000
 124.9709408 136.0909408  23.7570000 122.9149408 136.4549408  14.3630000
 123.5279408 137.1049408  14.7050000 122.2449408 136.3749408  15.0420000
 129.9729408 121.6209408   9.1660000 130.8859408 121.7839408   8.9290000
 130.0159408 121.2549408  10.0490000 132.5159408 129.3919408   7.0440000
 132.9239408 128.9559408   6.2950000 132.6179408 128.7729408   7.7670000
 140.6819408 134.5549408  10.8580000 140.4699408 134.9719408  11.6930000
 139.8309408 134.3559408  10.4670000 138.2509408 130.8129408  27.5970000
 137.9399408 130.8729408  26.6940000 139.1989408 130.9269408  27.5330000
 125.0659408 132.1979408  18.1450000 125.8319408 131.7159408  17.8330000
 124.6889408 132.5859408  17.3550000 124.4699408 126.9909408  21.0950000
 124.3759408 126.7169408  20.1820000 124.4599408 127.9469408  21.0610000
 136.7989408 128.8369408  21.9130000 136.1259408 128.2629408  21.5470000
 137.3839408 128.2479408  22.3890000 137.3339408 121.3149408  17.3720000
 137.1459408 122.1649408  17.7700000 136.5919408 120.7639408  17.6200000
 124.3569408 144.6489408  13.1330000 125.1819408 145.0809408  12.9100000
 123.8739408 145.2999408  13.6410000 126.0859408 134.8579408  11.4430000
 125.4669408 135.3769408  10.9300000 125.9959408 135.1919408  12.3360000
 133.4409408 136.1729408   8.5040000 133.3789408 135.9409408   7.5780000
 132.7799408 136.8539408   8.6260000 128.5019408 124.1379408   8.6120000
 128.8629408 124.4539408   7.7840000 128.9809408 123.3279408   8.7890000
 129.2219408 149.9579408  19.5540000 129.1209408 149.3189408  18.8490000
 129.7729408 150.6449408  19.1780000 125.8979408 146.1729408  15.7840000
 124.9769408 146.4009408  15.6590000 126.2559408 146.1269408  14.8980000
 124.1719408 128.0399408   6.5580000 123.5999408 128.3309408   7.2680000
 124.3229408 128.8259408   6.0330000 140.9309408 128.1219408  17.8530000
 140.4899408 128.4399408  18.6410000 141.2959408 128.9089408  17.4480000
 123.5469408 149.1949408  14.3880000 123.4529408 148.7309408  13.5560000
 124.0779408 149.9629408  14.1760000 127.6459408 135.5889408   0.5610000
 128.1379408 134.9059408   1.0160000 128.1499408 136.3889408   0.7110000
 129.7719408 122.8839408   5.6410000 130.6209408 122.7349408   6.0590000
 129.7999408 122.3549408   4.8440000 129.0259408 136.3989408  15.6100000
 128.7289408 136.0099408  16.4320000 128.4029408 136.0809408  14.9560000
 144.9449408 130.7089408  22.4340000 144.4059408 130.1399408  22.9830000
 144.3479408 131.3989408  22.1430000 132.9919408 126.0789408  20.9050000
 133.2669408 126.9929408  20.8340000 133.4549408 125.7489408  21.6750000
 133.9919408 130.0189408  29.0960000 134.7189408 129.4589408  29.3680000
 134.3539408 130.5539408  28.3890000 135.0069408 127.1169408  28.0480000
 135.2319408 127.0419408  28.9750000 134.1499408 126.6969408  27.9740000
 139.7759408 137.0209408   6.7930000 139.6259408 137.7959408   6.2530000
 139.1299408 137.0889408   7.4960000 144.9269408 135.3199408   9.5870000
 145.3159408 134.5869408  10.0650000 145.3279408 135.2809408   8.7190000
 125.7419408 131.5499408  12.2860000 125.5099408 131.7689408  13.1890000
 126.5849408 131.9799408  12.1450000 149.0709408 122.3679408  13.5800000
 149.1899408 122.7229408  14.4610000 149.9599408 122.2269408  13.2550000
 135.3469408 127.8619408  13.5700000 135.5059408 127.1419408  12.9600000
 136.2199408 128.1279408  13.8590000 133.9419408 147.7469408  11.2050000
 133.6119408 147.6369408  12.0970000 133.2129408 148.1429408  10.7270000
 121.1999408 137.8119408  29.4490000 121.9049408 138.0979408  30.0290000
 121.6469408 137.3699408  28.7280000 122.4759408 133.4329408  11.5170000
 122.9669408 133.3179408  12.3310000 122.3929408 134.3819408  11.4200000
 124.0809408 130.9719408  10.1910000 123.3579408 131.5829408  10.3280000
 124.6869408 131.1519408  10.9110000 122.4699408 122.2689408   9.4860000
 121.9209408 123.0069408   9.2190000 121.8819408 121.5139408   9.4670000
 123.0199408 136.0899408  11.5960000 122.9749408 136.1599408  12.5500000
 123.1089408 136.9939408  11.2930000 132.5739408 134.1909408  16.7410000
 132.6879408 133.7449408  15.9010000 133.3929408 134.6689408  16.8720000
 135.7109408 132.0629408  28.0250000 136.5479408 131.6029408  28.0980000
 135.9129408 132.9669408  28.2670000 129.4949408 135.9309408   3.8740000
 129.7659408 135.7989408   4.7830000 129.9059408 136.7569408   3.6190000
 128.0449408 138.2839408  17.2700000 127.8129408 137.5769408  17.8720000
 128.2419408 137.8409408  16.4450000 128.0199408 121.0509408  14.0630000
 128.1869408 121.8039408  13.4960000 128.5849408 121.1939408  14.8240000
 132.3299408 143.4389408   4.0320000 131.5709408 142.9229408   3.7610000
 133.0749408 143.0059408   3.6160000 123.8559408 148.2669408   6.1100000
 123.5329408 149.1219408   5.8250000 124.7399408 148.4389408   6.4320000
 122.1229408 142.1309408  17.8600000 122.8419408 141.8089408  17.3180000
 122.3069408 143.0629408  17.9750000 138.9909408 128.3469408   5.9690000
 139.9089408 128.3779408   6.2400000 138.8449408 127.4349408   5.7200000
 125.8029408 136.0779408   4.3120000 126.5949408 135.6419408   3.9980000
 125.6179408 135.6609408   5.1540000 135.6349408 131.6509408   3.7230000
 136.4549408 131.1739408   3.8460000 135.4639408 132.0589408   4.5730000
 133.6209408 135.0579408  11.2560000 132.8359408 135.3699408  11.7060000
 133.5009408 135.3309408  10.3470000 126.7349408 130.4089408  16.9120000
 127.6709408 130.2119408  16.8740000 126.3309408 129.5979408  17.2210000
 129.1019408 139.7299408  22.1000000 129.8669408 139.3959408  21.6300000
 129.3469408 140.6199408  22.3550000 128.8879408 140.4159408   1.5990000
 128.2829408 139.7779408   1.9770000 128.7719408 141.2019408   2.1330000
 133.4439408 120.5639408   5.1250000 134.2609408 120.5429408   5.6220000
 133.7179408 120.5099408   4.2090000 128.1309408 137.3219408   9.6840000
 128.1119408 138.2399408   9.4110000 127.9969408 137.3509408  10.6310000
 131.8609408 128.8709408   0.8180000 131.4729408 129.7019408   0.5460000
 132.8049408 129.0259408   0.7920000 134.0549408 140.7059408  19.8650000
 133.1819408 140.5199408  20.2090000 134.1139408 140.1809408  19.0660000
 128.7819408 134.8269408  10.5120000 127.8989408 134.6719408  10.8490000
 128.7299408 135.6859408  10.0920000 145.7759408 135.5769408  15.5950000
 146.5949408 135.4519408  15.1160000 145.8309408 134.9639408  16.3280000
 134.7319408 125.0299408   6.7360000 135.2879408 124.2539408   6.6670000
 135.2679408 125.6689408   7.2060000 134.7409408 138.3739408  28.8420000
 135.0239408 139.2489408  28.5730000 135.2609408 138.1829408  29.6220000
 134.8019408 135.4929408  16.8610000 134.9129408 136.3009408  16.3600000
 135.6729408 135.3059408  17.2110000 127.7279408 133.2519408  26.7680000
 127.4999408 132.7349408  27.5410000 128.4259408 133.8349408  27.0650000
 138.8059408 138.6449408  29.5420000 139.1739408 137.7629408  29.4910000
 139.4979408 139.2139408  29.2050000 147.4529408 132.4809408  12.6510000
 146.9679408 131.6609408  12.7380000 148.3159408 132.2169408  12.3320000
 139.8039408 130.9529408   8.8190000 140.7069408 131.2619408   8.7410000
 139.2889408 131.5889408   8.3220000 133.6759408 132.0399408   8.3110000
 132.9579408 132.4469408   8.7970000 133.3909408 131.1369408   8.1740000
 124.4319408 119.9699408   9.1520000 124.9539408 120.3289408   9.8690000
 123.7079408 120.5879408   9.0490000 123.1979408 135.2869408   7.9950000
 122.5999408 135.4139408   7.2590000 122.7259408 134.7069408   8.5910000
 133.4919408 130.2479408  15.4210000 134.1179408 130.9619408  15.5410000
 134.0109408 129.5349408  15.0460000 148.8019408 126.7519408  15.1170000
 148.5949408 126.3399408  14.2790000 147.9779408 127.1509408  15.3980000
 126.3509408 132.5299408  20.8020000 125.7639408 132.6359408  20.0530000
 126.8079408 133.3679408  20.8690000 122.1939408 122.4329408  15.0200000
 121.9859408 122.0149408  14.1840000 122.7589408 123.1699408  14.7850000
 140.3539408 121.1919408  14.3940000 141.2449408 121.0649408  14.0680000
 140.3279408 122.1089408  14.6690000 132.9529408 138.1909408   4.7110000
 132.8259408 138.4779408   5.6150000 133.8859408 138.3269408   4.5450000
 131.2079408 133.2309408   9.6310000 131.4929408 133.1859408  10.5430000
 130.4689408 133.8389408   9.6400000 125.2889408 136.5969408   1.2440000
 126.1979408 136.4009408   1.4730000 125.0949408 136.0109408   0.5130000
 125.9609408 121.2959408  10.8390000 126.7089408 121.8909408  10.8830000
 125.2019408 121.8499408  11.0230000 134.0369408 129.3019408  10.0320000
 133.0859408 129.2279408   9.9500000 134.3769408 128.5189408   9.5980000
 133.8409408 135.9929408  19.9150000 133.3829408 135.6059408  19.1690000
 134.1529408 136.8389408  19.5910000 137.9259408 133.8949408  14.1400000
 136.9729408 133.9149408  14.2200000 138.2449408 134.1439408  15.0080000
 137.9639408 124.7779408   0.3340000 137.0519408 125.0459408   0.4500000
 138.1979408 124.3589408   1.1630000 126.0819408 131.7559408   3.1260000
 125.2619408 132.2489408   3.0890000 126.7199408 132.3779408   3.4750000
 140.7849408 131.9599408  17.6010000 141.3309408 131.2469408  17.2700000
 140.9109408 132.6709408  16.9720000 136.0959408 130.7469408   9.5820000
 135.3069408 130.3579408   9.9590000 136.3329408 130.1619408   8.8630000
 131.8799408 131.9409408   3.1400000 131.5959408 131.9629408   4.0530000
 132.2839408 131.0799408   3.0340000 130.6029408 138.1769408  12.3180000
 129.6709408 138.0139408  12.4610000 130.6839408 139.1309408  12.3230000
 136.8019408 140.5669408  15.9690000 137.5409408 139.9729408  15.8380000
 136.7199408 141.0359408  15.1380000 126.3819408 123.8779408   6.2780000
 126.8239408 124.1609408   7.0780000 126.7769408 124.4079408   5.5850000
 137.8219408 130.6709408  24.7140000 137.0509408 130.2079408  24.3860000
 138.5589408 130.2549408  24.2680000 140.9929408 136.8169408   1.4860000
 141.3499408 137.6909408   1.3270000 140.4049408 136.9299408   2.2320000
 147.1529408 133.0869408  16.5300000 147.5009408 132.5009408  17.2020000
 146.4709408 132.5749408  16.0950000 148.4819408 130.9349408   9.6410000
 148.8959408 131.1749408  10.4700000 148.9019408 131.4979408   8.9910000
 134.8989408 146.5689408   8.8670000 134.8359408 146.8249408   9.7880000
 134.8469408 145.6129408   8.8800000 126.4319408 129.2409408   9.6680000
 125.6539408 129.7959408   9.6110000 126.1929408 128.4429408   9.1960000
 137.9739408 130.1959408   4.3400000 138.5639408 130.9399408   4.4650000
 138.2259408 129.5729408   5.0210000 134.5639408 131.3319408  12.5050000
 135.3129408 131.9219408  12.4160000 134.8419408 130.5249408  12.0710000
 125.8949408 139.3489408  10.4970000 125.2319408 139.5939408  11.1420000
 125.4229408 138.8129408   9.8600000 130.5329408 124.8369408  11.0850000
 130.4469408 125.5079408  10.4070000 131.3799408 125.0149408  11.4930000
 128.3729408 143.4639408  13.1860000 129.1639408 143.9339408  12.9220000
 127.6539408 143.9979408  12.8490000 128.0019408 133.8009408   4.2870000
 128.6839408 134.4149408   4.0160000 127.9259408 133.9279408   5.2330000
 128.5919408 140.0079408  11.6570000 127.6919408 139.6829408  11.6220000
 128.5009408 140.9549408  11.7650000 128.5059408 149.5499408   4.7200000
 129.2599408 149.8159408   4.1930000 128.6619408 149.9459408   5.5770000
 124.0379408 147.2559408   9.9530000 124.9729408 147.0479408   9.9550000
 123.9999408 148.1869408   9.7350000 137.8569408 125.7969408   6.3200000
 138.7739408 125.6119408   6.1180000 137.3679408 125.4069408   5.5960000
 144.8209408 127.4299408   8.6100000 144.9309408 126.7309408   7.9650000
 145.4989408 128.0679408   8.3900000 129.6499408 131.8419408   7.8760000
 130.4039408 132.2779408   8.2730000 129.2779408 131.3139408   8.5820000
 137.8409408 131.3329408  21.0730000 137.5779408 130.4969408  21.4570000
 137.0239408 131.8229408  20.9800000 136.4069408 123.6289408  19.0480000
 137.1099408 124.2789408  19.0450000 136.1969408 123.5069408  19.9740000
 131.6449408 128.1269408  23.6070000 131.9199408 127.4939408  24.2710000
 131.9309408 128.9729408  23.9510000 138.3389408 128.6359408  17.0160000
 138.1949408 129.4509408  17.4970000 139.2549408 128.4159408  17.1850000
 127.8239408 129.7049408   1.9020000 128.6989408 129.3949408   2.1340000
 127.3699408 129.7939408   2.7400000 127.4669408 129.5539408  26.4890000
 127.0789408 130.1509408  27.1290000 127.8689408 130.1279408  25.8380000
 133.4879408 128.3599408  17.7820000 132.5719408 128.4729408  18.0380000
 133.7179408 129.1799408  17.3450000 147.1329408 133.4899408   6.5760000
 146.2129408 133.7239408   6.4540000 147.5309408 134.2739408   6.9540000
 125.3919408 129.8369408  21.5440000 124.4879408 130.0839408  21.7380000
 125.8819408 130.6569408  21.5990000 135.6989408 133.6459408  21.5090000
 134.9289408 134.2119408  21.4530000 135.7449408 133.3939408  22.4310000
 125.3759408 125.8509408   4.5400000 125.9379408 126.5929408   4.3170000
 125.1269408 126.0039408   5.4520000 141.4999408 140.8909408  21.6630000
 141.5299408 141.8449408  21.5890000 141.2169408 140.5929408  20.7990000
 136.1989408 132.7839408  24.3270000 136.9519408 132.3809408  24.7590000
 135.5079408 132.1229408  24.3830000 140.3079408 132.6819408  21.5200000
 139.5659408 132.7069408  22.1230000 140.0339408 133.2229408  20.7790000
 143.5869408 131.2759408   3.3410000 142.6949408 131.6219408   3.3230000
 144.1119408 131.9439408   2.9000000 127.8799408 146.0279408  23.7110000
 128.5289408 146.2299408  23.0370000 127.0729408 145.8609408  23.2240000
 138.4169408 134.7709408  20.7260000 138.8399408 135.1919408  21.4750000
 137.5249408 134.5919408  21.0240000 134.9759408 135.1649408  23.9550000
 135.6309408 135.7189408  23.5300000 135.4869408 134.4979408  24.4130000
 140.1269408 137.4139408  17.2570000 140.8569408 138.0169408  17.1180000
 140.2649408 137.0689408  18.1390000 137.7229408 129.0149408  14.5310000
 138.2079408 129.8399408  14.5330000 137.7629408 128.7109408  15.4380000
 137.0589408 124.2909408   3.6940000 137.3229408 123.4279408   4.0130000
 136.3329408 124.1129408   3.0950000 132.1429408 133.0499408  23.4810000
 132.7959408 133.1569408  22.7890000 131.8279408 133.9369408  23.6530000
 129.2999408 124.7489408  16.6790000 128.4779408 124.7659408  16.1890000
 129.0309408 124.7099408  17.5970000 130.2849408 129.8869408  12.5980000
 130.8409408 129.1149408  12.4900000 130.1829408 129.9779408  13.5460000
 131.5199408 130.6549408  24.6330000 131.7749408 131.4879408  24.2350000
 130.7539408 130.3749408  24.1320000 148.8309408 127.2719408   2.2880000
 148.8699408 126.9779408   3.1980000 149.5399408 126.7969408   1.8530000
 132.8319408 126.0959408  25.8560000 132.2219408 126.7999408  26.0740000
 132.2899408 125.4319408  25.4300000 142.0739408 129.3869408  29.4840000
 142.9599408 129.0269408  29.4310000 141.4999408 128.6319408  29.3590000
 137.8369408 125.8009408  18.3520000 138.7399408 125.6199408  18.0890000
 137.7859408 126.7559408  18.3950000 135.8959408 139.4069408  24.8660000
 135.5879408 138.8379408  25.5710000 136.8499408 139.3899408  24.9430000
 132.3099408 137.8379408  18.4750000 131.5999408 137.7869408  17.8350000
 132.9599408 138.4099408  18.0670000 141.5769408 130.0929408  13.5580000
 140.8019408 130.5149408  13.9290000 141.6999408 130.5189408  12.7100000
 123.0429408 132.8729408  25.6090000 123.5349408 132.7249408  24.8020000
 122.7319408 132.0039408  25.8640000 134.6799408 149.2389408  26.7010000
 135.3729408 149.7719408  26.3100000 134.3379408 149.7769408  27.4150000
 125.6739408 143.6199408   0.0820000 126.0949408 143.8689408   0.9050000
 126.3839408 143.2649408  -0.4520000 123.0279408 138.2679408   1.4330000
 123.1569408 139.2159408   1.4620000 123.8729408 137.9189408   1.1520000
 125.6639408 128.1749408  18.2520000 126.2629408 127.8789408  18.9380000
 125.1889408 127.3859408  17.9920000 125.9109408 126.2639408  23.1760000
 125.8639408 125.3079408  23.1610000 125.2579408 126.5469408  22.5370000
 123.5549408 132.7819408   3.2750000 122.7219408 132.4139408   3.5720000
 123.4619408 133.7249408   3.4110000 132.0799408 122.2879408  25.6550000
 131.8949408 122.3419408  26.5920000 131.6749408 123.0719408  25.2840000
 123.4729408 129.6029408  27.1470000 123.7089408 128.7169408  26.8730000
 124.0979408 129.8149408  27.8400000 140.1159408 123.8369408  15.0270000
 140.6079408 124.5009408  14.5440000 139.2639408 123.8059408  14.5920000
 129.1499408 149.6889408  22.5040000 129.9349408 150.2339408  22.5540000
 129.1679408 149.3219408  21.6200000 130.2899408 136.9219408  26.2360000
 130.6129408 136.3839408  25.5120000 130.5349408 137.8159408  25.9980000
 125.6959408 126.5609408  27.9650000 126.2729408 126.7839408  27.2350000
 126.2299408 126.7069408  28.7460000 129.0229408 130.0999408  23.4030000
 128.3649408 130.6929408  23.7660000 128.5369408 129.3039408  23.1870000
 122.6359408 129.1879408  12.6550000 122.1249408 129.8089408  13.1730000
 121.9839408 128.6069408  12.2650000 130.1199408 121.7629408   3.4120000
 129.5699408 121.8339408   2.6310000 130.9739408 122.0939408   3.1340000
 135.5569408 145.5499408  26.2860000 134.8219408 144.9969408  26.0220000
 136.0899408 145.6339408  25.4950000 127.1549408 127.1399408  25.5410000
 126.6739408 127.0259408  24.7220000 127.2739408 128.0859408  25.6200000
 134.3109408 130.8199408  25.0000000 133.4729408 130.6859408  24.5580000
 134.6099408 129.9379408  25.2200000 144.7679408 126.0699408  17.1460000
 143.8289408 126.0299408  16.9640000 145.1819408 125.7409408  16.3480000
 125.1569408 131.4689408  15.1180000 124.3929408 131.0489408  15.5120000
 125.9069408 131.0229408  15.5130000 136.3049408 137.8459408  18.6500000
 136.4699408 138.5339408  18.0040000 136.6669408 137.0539408  18.2540000
 131.4229408 121.4139408  22.3640000 131.7979408 121.2949408  23.2370000
 132.1729408 121.6199408  21.8060000 124.3739408 122.0349408  22.5920000
 125.0449408 122.5869408  22.9950000 123.7539408 122.6539408  22.2080000
 127.8019408 136.5439408   7.0640000 127.6149408 135.6139408   7.1890000
 127.8329408 136.9049408   7.9500000 129.5459408 134.8449408  27.9910000
 129.9689408 135.6099408  27.6000000 129.0599408 135.1949408  28.7380000
 132.7309408 132.2139408  18.9580000 132.2289408 131.4239408  18.7610000
 132.6519408 132.7509408  18.1690000 123.0389408 147.9559408  28.5700000
 123.2659408 147.7619408  27.6600000 122.9049408 148.9029408  28.5870000
 128.8229408 139.2789408  28.8730000 129.0599408 138.7649408  29.6450000
 128.2279408 139.9509408  29.2050000 130.8119408 124.5099408  24.7060000
 129.9129408 124.5729408  25.0290000 130.7219408 124.4639408  23.7540000
 128.1589408 131.4079408  29.5170000 129.1069408 131.5379408  29.5250000
 127.9899408 130.8219408  30.2550000 127.4109408 128.2469408  22.5390000
 127.0039408 127.3889408  22.6570000 126.8979408 128.6629408  21.8460000
 125.9589408 122.4859408  29.6520000 125.4029408 122.4139408  30.4270000
 125.4749408 122.0279408  28.9650000 148.9339408 119.9049408  27.3680000
 149.3039408 120.6489408  27.8430000 149.4589408 119.8439408  26.5700000
 138.8269408 123.5309408  22.3500000 138.8589408 122.6169408  22.6340000
 139.3369408 123.5479408  21.5400000 133.0339408 134.4019408   3.2410000
 133.4299408 134.6769408   2.4150000 132.6019408 133.5729408   3.0360000
 134.6579408 121.6439408  24.3280000 135.2989408 121.5509408  25.0330000
 133.8909408 122.0299408  24.7510000 129.2199408 130.8319408  20.8010000
 128.2959408 130.9889408  20.6070000 129.2279408 130.5439408  21.7140000
 128.1889408 137.1529408  23.5900000 129.0689408 137.0679408  23.9560000
 127.9749408 138.0809408  23.6910000 127.2109408 128.0059408   5.3860000
 126.6419408 128.7579408   5.5510000 127.9689408 128.1489408   5.9520000
 141.0649408 129.6399408   2.0140000 141.5329408 129.0169408   2.5690000
 141.5449408 129.6309408   1.1850000 124.8949408 138.8529408   6.4910000
 125.2919408 139.6979408   6.7040000 125.4089408 138.5259408   5.7530000
 120.8779408 149.1329408   1.2170000 121.1779408 149.6449408   0.4660000
 121.0379408 148.2229408   0.9670000 126.9089408 124.5699408  15.4710000
 126.4269408 125.1219408  14.8560000 126.2819408 124.3849408  16.1700000
 135.2509408 128.2789408  25.3330000 134.5369408 127.6459408  25.4040000
 135.7219408 128.2039408  26.1630000 136.1519408 136.8349408   6.9130000
 135.4469408 136.5409408   6.3350000 135.7099408 137.0769408   7.7270000
 121.6169408 129.6609408  25.2060000 122.3259408 129.5369408  25.8370000
 122.0529408 129.9679408  24.4120000 135.4429408 120.1609408  13.2290000
 136.1079408 119.5109408  13.4580000 135.5879408 120.8799408  13.8430000
 144.0269408 139.3799408  21.4100000 144.2849408 138.4959408  21.6720000
 143.1719408 139.5119408  21.8210000 134.3959408 138.1949408  10.7400000
 134.3709408 138.1429408  11.6950000 134.2869408 137.2889408  10.4480000
 125.1149408 124.0059408  26.8730000 124.1869408 124.1409408  26.6820000
 125.3489408 124.7299408  27.4530000 124.5679408 132.7609408  23.3450000
 124.5269408 133.7069408  23.4870000 124.8839408 132.6679408  22.4460000
 141.5419408 122.2789408  24.3060000 141.1949408 122.1159408  23.4290000
 141.4429408 121.4439408  24.7630000 134.6329408 143.1429408  10.1660000
 134.8209408 143.6079408   9.3500000 134.7559408 142.2189408   9.9490000
 135.3159408 132.0549408  16.3340000 134.9349408 132.8129408  16.7780000
 136.1729408 131.9419408  16.7450000 142.2929408 137.8109408  23.8080000
 142.1829408 137.0259408  24.3450000 142.7159408 138.4419408  24.3890000
 129.7159408 137.2639408   0.6440000 130.4809408 136.8889408   0.2080000
 130.0779408 137.7609408   1.3780000 129.6429408 147.8269408  24.9720000
 129.4569408 147.5769408  24.0670000 130.3899408 148.4219408  24.9080000
 127.2109408 131.8149408  24.3940000 126.3699408 132.1359408  24.0660000
 127.5599408 132.5409408  24.9100000 120.1669408 128.8079408  20.3710000
 119.8829408 128.0049408  20.8070000 119.9809408 129.5029408  21.0020000
 131.3649408 129.9299408  18.7550000 130.7509408 129.2719408  18.4300000
 131.2129408 129.9549408  19.7000000 134.3869408 140.9349408   1.0510000
 133.5169408 141.2199408   0.7720000 134.8489408 140.7409408   0.2360000
 130.7769408 129.9669408  15.3550000 131.7099408 130.1599408  15.2610000
 130.7469408 129.1889408  15.9110000 123.5569408 127.1909408  26.0440000
 124.3569408 126.6719408  26.1280000 123.4109408 127.2549408  25.1000000
 139.8279408 135.7489408  13.0870000 140.5869408 135.7009408  13.6680000
 139.2939408 134.9909408  13.3260000 120.9909408 134.1799408  29.6390000
 121.5389408 134.9439408  29.4570000 120.9489408 134.1369408  30.5940000
 131.3459408 133.1939408  28.8840000 130.7059408 133.7409408  28.4290000
 131.9039408 132.8469408  28.1880000 148.4329408 121.3169408  17.7720000
 148.3759408 120.3929408  18.0160000 148.3789408 121.7879408  18.6040000
 136.9629408 136.6139408  22.6300000 136.8069408 137.5369408  22.8310000
 137.8629408 136.5879408  22.3060000 146.9299408 131.9079408   1.8610000
 146.9209408 132.4829408   2.6270000 147.6339408 131.2839408   2.0360000
 135.8339408 123.3109408   1.4930000 136.3929408 122.5349408   1.4550000
 135.4889408 123.4019408   0.6050000 120.8749408 123.4179408  23.9600000
 120.5559408 122.5409408  23.7490000 121.6379408 123.5389408  23.3940000
 133.8929408 139.7199408  17.2500000 133.8199408 140.5249408  16.7370000
 134.7049408 139.3139408  16.9450000 130.5189408 127.1779408  15.9270000
 130.5439408 126.3239408  16.3590000 130.1409408 126.9999408  15.0660000
 135.9109408 147.6449408  20.9300000 135.4609408 146.9469408  20.4540000
 135.2979408 147.8989408  21.6190000 135.5579408 124.1889408  26.1150000
 134.8629408 124.8469408  26.1260000 135.7909408 124.1009408  25.1910000
 129.3779408 128.0839408  28.2570000 128.8019408 128.1769408  27.4980000
 130.1869408 128.5259408  28.0000000 127.9469408 127.0969408  19.7360000
 127.9239408 126.1409408  19.7090000 128.7869408 127.3059408  20.1460000
 136.8989408 149.9439408   5.6780000 136.7499408 149.2089408   6.2740000
 136.6159408 149.6199408   4.8230000 129.8299408 147.2289408   5.4010000
 128.9329408 147.4469408   5.1470000 130.3679408 147.5429408   4.6740000
 138.4289408 149.3959408  28.3290000 137.9429408 148.5779408  28.2260000
 138.7299408 149.3839408  29.2380000 121.1219408 126.0539408   9.6410000
 120.6489408 126.3209408   8.8530000 121.9209408 126.5809408   9.6320000
 131.1519408 142.9069408  20.7830000 131.1849408 141.9589408  20.9060000
 130.5209408 143.0349408  20.0740000 131.0869408 145.7069408   7.3250000
 130.8939408 146.1889408   8.1280000 130.7599408 146.2699408   6.6230000
 122.6749408 138.7829408  10.9760000 123.1839408 139.3299408  11.5740000
 123.0549408 138.9529408  10.1140000 133.9669408 135.5319408   5.7910000
 134.1179408 134.5939408   5.6770000 133.3829408 135.7699408   5.0710000
 122.1679408 124.6769408  12.0900000 121.6919408 125.0179408  11.3330000
 121.8439408 125.1909408  12.8290000 129.7219408 148.0699408   8.6160000
 129.4219408 148.0619408   7.7080000 129.1469408 148.6979408   9.0530000
 131.7279408 140.3879408  21.2710000 131.6209408 139.5149408  20.8940000
 132.3419408 140.2629408  21.9960000 148.0529408 145.8899408  12.2050000
 148.2489408 146.7309408  12.6180000 147.0989408 145.8779408  12.1250000
 133.8599408 126.7389408   2.4700000 133.0679408 127.2019408   2.1940000
 133.5509408 126.0939408   3.1060000 124.9999408 149.5199408  18.2440000
 125.1339408 149.6689408  19.1800000 124.6149408 150.3359408  17.9240000
 130.5059408 139.8669408   6.1100000 129.8559408 139.5139408   5.5030000
 129.9949408 140.3779408   6.7380000 133.0909408 125.1259408   4.6640000
 133.6829408 125.1169408   5.4160000 132.3979408 124.5079408   4.8970000
 123.3269408 144.6049408  19.3680000 124.2059408 144.2289408  19.3230000
 123.4169408 145.4729408  18.9750000 120.0379408 141.4779408   4.6990000
 120.9309408 141.1549408   4.5830000 119.4899408 140.8369408   4.2450000
 135.7609408 145.8819408   4.7460000 135.6409408 145.0999408   4.2060000
 134.9199408 145.9989408   5.1890000 134.2179408 140.3289408  13.1910000
 134.4609408 141.2159408  12.9250000 135.0449408 139.9189408  13.4450000
 137.6079408 141.4719408  21.4500000 137.1129408 142.1989408  21.8280000
 137.2049408 140.6879408  21.8230000 132.8429408 144.9729408  21.9030000
 132.4879408 144.2539408  21.3800000 133.3269408 145.5089408  21.2750000
 124.6779408 142.4899408  16.5850000 125.2769408 143.2359408  16.6160000
 125.2109408 141.7439408  16.8610000 125.7979408 141.3969408   6.7650000
 126.4539408 141.7799408   7.3470000 124.9819408 141.4349408   7.2640000
 137.4849408 147.6719408   7.7400000 136.6389408 147.2889408   7.9700000
 137.8719408 147.0489408   7.1250000 122.3099408 138.7869408   5.5240000
 121.6629408 138.6259408   6.2120000 123.1549408 138.6519408   5.9530000
 144.3189408 144.7159408  14.1060000 144.8969408 143.9829408  13.8980000
 144.5489408 145.3919408  13.4680000 126.4959408 138.9039408   2.3800000
 125.9039408 139.5189408   1.9470000 125.9969408 138.0889408   2.4350000
 125.8519408 147.3879408  29.9390000 125.2559408 147.5509408  29.2070000
 125.3619408 146.8089408  30.5230000 136.4369408 139.0669408  21.2430000
 136.5039408 138.3559408  20.6060000 135.6939408 139.5899408  20.9420000
 127.2649408 143.0889408   3.3920000 127.5729408 143.8519408   2.9040000
 127.6459408 143.1919408   4.2640000 130.3759408 143.4779408  17.1180000
 129.6279408 143.2069408  17.6500000 130.5139408 142.7509408  16.5100000
 135.4449408 145.1009408  14.0140000 136.2459408 145.2109408  13.5020000
 135.0809408 144.2679408  13.7140000 129.1669408 125.4379408   5.7480000
 128.8509408 125.6709408   4.8750000 129.4189408 124.5179408   5.6750000
 124.2729408 140.1469408  12.5690000 123.8439408 140.9559408  12.8460000
 125.0339408 140.0699408  13.1450000 123.2469408 135.4839408   3.2100000
 123.6359408 136.1419408   2.6340000 123.7999408 135.4919408   3.9910000
 124.1789408 137.7809408   8.9290000 124.2309408 138.1619408   8.0530000
 123.5919408 137.0319408   8.8310000 131.1639408 149.3629408  14.0990000
 131.9599408 149.0219408  14.5070000 130.8289408 150.0059408  14.7250000
 131.2709408 149.4239408   0.7540000 131.1439408 149.1009408  -0.1380000
 130.7259408 150.2099408   0.8040000 130.1639408 134.3359408  17.9330000
 129.7059408 133.4989408  17.8530000 130.9369408 134.2409408  17.3770000
 126.7049408 144.8669408   7.0240000 127.3139408 144.3839408   6.4660000
 126.0519408 145.2189408   6.4190000 120.7809408 137.7779408   3.0700000
 121.3749408 137.8329408   3.8190000 121.3059408 138.0689408   2.3250000
 126.9129408 146.0559408  13.0170000 126.7609408 146.9919408  13.1450000
 127.8609408 145.9539408  13.1010000 129.9689408 145.5049408  11.5150000
 130.0609408 146.2039408  12.1630000 129.5309408 145.9229408  10.7730000
 132.8559408 122.0519408   9.6080000 133.6339408 121.5559408   9.8640000
 132.6389408 122.5739408  10.3800000 130.9059408 142.2719408   1.9450000
 130.8709408 141.3879408   1.5790000 130.4339408 142.8129408   1.3120000
 120.6149408 134.7429408   2.4330000 119.9859408 135.4539408   2.5520000
 121.4659408 135.1429408   2.6100000 135.8529408 143.8829408   7.9390000
 135.9139408 143.7729408   6.9900000 136.7569408 144.0099408   8.2250000
 127.6779408 135.6369408  18.2270000 127.3809408 135.6059408  19.1360000
 128.4549408 135.0779408  18.2080000 124.3649408 142.5619408  10.9050000
 123.8259408 143.0119408  11.5560000 125.0559408 143.1889408  10.6910000
 131.6299408 143.2589408  11.2250000 131.9139408 143.2529408  10.3110000
 130.9499408 143.9319408  11.2610000 123.3079408 142.3489408  14.1740000
 123.6449408 143.1049408  13.6930000 123.8179408 142.3319408  14.9840000
 140.0859408 123.0319408   1.4180000 140.4329408 122.3479408   0.8450000
 139.2249408 122.7079408   1.6830000 148.1769408 122.4219408  20.1510000
 147.3749408 122.2089408  20.6290000 148.4289408 123.2859408  20.4760000
 139.2209408 148.9019408   9.3070000 138.6819408 149.2899408   9.9960000
 138.5979408 148.6619408   8.6210000 120.9919408 119.9949408  25.7370000
 121.7769408 120.0659408  25.1940000 121.2419408 120.3889408  26.5730000
 120.7819408 136.6869408  15.9170000 120.1779408 136.2529408  16.5200000
 120.3069408 137.4619408  15.6180000 126.7389408 144.1779408   9.9850000
 126.8389408 145.0859408  10.2700000 126.8689408 144.2079408   9.0370000
 130.4329408 121.4439408  15.7220000 130.5989408 121.4719408  16.6650000
 130.7079408 122.3039408  15.4050000 131.3089408 139.2199408  25.3400000
 132.0399408 139.3309408  24.7320000 131.4799408 139.8519408  26.0380000
 123.3309408 139.3729408  18.2010000 122.4419408 139.5659408  18.5000000
 123.8949408 139.6769408  18.9110000 146.3379408 128.5209408  14.7070000
 145.9319408 129.3879408  14.7270000 145.5999408 127.9109408  14.7000000
 123.1059408 141.9459408   8.1800000 123.4189408 142.7029408   8.6760000
 122.1519408 142.0229408   8.2010000 135.4369408 143.2539408  20.0090000
 136.0059408 143.1119408  19.2530000 135.0009408 142.4129408  20.1430000
 127.0619408 141.4499408   9.2770000 127.2629408 142.2119408   9.8210000
 126.5489408 140.8769408   9.8470000 132.4839408 146.0199408  29.2340000
 132.1589408 145.9759408  30.1330000 131.7009408 146.1619408  28.7020000
 132.0659408 148.8869408   9.7040000 131.2279408 148.5389408   9.3980000
 132.5209408 149.1529408   8.9050000 131.2699408 146.0949408  16.5260000
 131.8939408 146.0249408  15.8040000 131.2699408 145.2259408  16.9290000
 130.8659408 138.4719408   2.7640000 130.6719408 139.4039408   2.8690000
 131.5619408 138.2989408   3.3990000 133.6439408 120.4429408   1.8470000
 132.8629408 120.2199408   1.3410000 133.6489408 121.3999408   1.8730000
 123.1739408 120.5829408   4.5740000 124.1289408 120.6499408   4.5680000
 122.8779408 121.4079408   4.9580000 129.4209408 141.4549408   7.9740000
 128.8169408 141.4819408   8.7160000 130.2109408 141.8929408   8.2920000
 148.8549408 143.9129408  10.4620000 148.1329408 143.2899408  10.3720000
 148.5459408 144.5469408  11.1090000 129.8059408 135.8759408  21.7940000
 128.8959408 136.1509408  21.9020000 129.7489408 134.9669408  21.5000000
 127.9939408 141.3219408  14.6600000 128.8919408 141.3319408  14.9910000
 127.9779408 142.0019408  13.9870000 145.4639408 145.1709408   8.5830000
 144.5769408 145.4189408   8.3240000 145.9009408 144.9499408   7.7600000
 144.4759408 140.8279408  19.0240000 145.3199408 141.0919408  18.6570000
 144.7019408 140.2359408  19.7420000 128.2409408 139.7249408  25.2630000
 128.0479408 139.1849408  26.0300000 129.1959408 139.7239408  25.2030000
 132.9509408 121.3049408  12.5350000 133.5739408 120.6049408  12.7320000
 132.1069408 120.9639408  12.8300000 149.8429408 146.8959408   8.9490000
 149.2369408 146.1979408   8.6960000 150.4319408 146.4839408   9.5810000
 133.2739408 146.0209408   5.5640000 133.0779408 145.8549408   6.4860000
 132.5129408 145.6839408   5.0920000 133.9679408 143.1959408  12.7510000
 133.0609408 143.1179408  12.4530000 134.4749408 143.3119408  11.9480000
 127.9659408 143.2009408  24.6000000 128.6309408 142.7009408  24.1270000
 127.9549408 144.0549408  24.1660000 148.8189408 148.9629408  19.5480000
 149.3499408 148.7979408  20.3270000 147.9169408 148.8389408  19.8420000
 127.1999408 122.1849408  19.7970000 127.7519408 121.4189408  19.6400000
 126.4489408 121.8439408  20.2840000 136.6659408 132.2829408   1.1970000
 136.1439408 133.0379408   0.9240000 136.2319408 131.9649408   1.9890000
 131.4439408 135.8639408  23.9440000 132.0879408 136.3889408  23.4680000
 130.7859408 135.6379408  23.2870000 134.5009408 132.8519408   5.8720000
 134.3729408 132.6739408   6.8040000 133.6179408 132.8409408   5.5020000
 130.8959408 139.7499408   9.9370000 130.1039408 139.8069408  10.4710000
 131.6099408 139.9329408  10.5480000 139.0259408 134.6979408   5.6060000
 139.1789408 135.5409408   6.0320000 138.8219408 134.0999408   6.3250000
 126.7689408 148.4729408  14.2330000 127.3599408 149.2059408  14.4070000
 125.9639408 148.6979408  14.6990000 129.7699408 142.6009408  26.6800000
 129.2829408 142.6389408  25.8560000 129.7329408 143.4939408  27.0220000
 147.3529408 120.3099408  12.8330000 147.5099408 119.6729408  13.5300000
 147.9369408 121.0399408  13.0390000 132.1129408 138.3489408   7.7370000
 131.7449408 138.5769408   8.5910000 131.5649408 138.8179408   7.1070000
 144.6629408 139.5749408  12.4850000 144.9049408 138.8659408  13.0800000
 144.1909408 139.1409408  11.7740000 121.4539408 149.7109408  15.8930000
 121.4329408 150.6619408  16.0040000 122.2849408 149.5399408  15.4500000
 126.8329408 140.5419408  17.8900000 127.4509408 139.8449408  17.6710000
 126.2749408 140.1639408  18.5700000 145.2199408 134.8659408   1.3530000
 145.3179408 134.0859408   0.8060000 144.4369408 135.3009408   1.0120000
 138.8679408 147.6099408   3.3490000 139.7269408 147.3279408   3.6620000
 138.2529408 147.2769408   4.0020000 128.3579408 124.1779408   1.8600000
 128.4489408 124.8209408   2.5630000 127.5369408 123.7239408   2.0540000
 131.2019408 148.7629408   3.4690000 131.2119408 149.5939408   3.9450000
 131.6049408 148.9659408   2.6240000 126.1329408 143.5059408  20.1000000
 126.3269408 143.2889408  19.1880000 126.9599408 143.8419408  20.4480000
 130.2109408 148.4339408  11.9620000 131.0079408 148.2959408  11.4500000
 130.5229408 148.6039408  12.8510000 137.3879408 142.3639408  27.4260000
 137.6389408 142.8729408  28.1970000 138.1209408 142.4709408  26.8190000
 121.6809408 148.4499408   7.5820000 122.3499408 147.9409408   7.1260000
 120.8959408 147.9039408   7.5440000 145.9239408 142.7609408  13.2040000
 145.7279408 142.7439408  12.2670000 146.0819408 141.8459408  13.4340000
 139.3099408 146.6769408  14.0320000 139.6109408 146.8749408  14.9190000
 139.3619408 145.7229408  13.9680000 123.3539408 144.7089408   9.0660000
 123.7559408 145.5449408   9.3010000 122.5179408 144.9489408   8.6650000
 121.4129408 146.7549408   0.3960000 122.1889408 147.0679408  -0.0690000
 121.2349408 145.8959408   0.0140000 149.6089408 147.8679408  15.3230000
 150.1049408 147.1339408  14.9590000 150.2649408 148.5469408  15.4810000
 142.3659408 134.6299408   8.6880000 141.7399408 134.6659408   9.4110000
 143.1379408 135.0919408   9.0160000 121.5119408 139.0599408  13.6060000
 120.8219408 139.4449408  13.0660000 122.0049408 138.5029408  13.0030000
 123.9449408 146.8669408  18.1460000 123.7629408 146.8199408  17.2080000
 124.4529408 147.6719408  18.2510000 133.2799408 142.0519408  15.6120000
 132.3279408 141.9589408  15.6370000 133.5199408 141.8259408  14.7140000
 132.9559408 141.3659408   6.3640000 133.4859408 141.8059408   5.6990000
 132.4029408 140.7609408   5.8690000 123.4409408 126.1809408   1.9050000
 124.0029408 126.8479408   1.5100000 123.9759408 125.7989408   2.6010000
 137.0119408 143.5979408   0.0990000 137.4669408 144.3679408   0.4400000
 136.1409408 143.9179408  -0.1370000 127.1949408 142.4749408  28.1130000
 126.6079408 142.3649408  27.3650000 128.0739408 142.3999408  27.7400000
 138.2589408 132.5979408   7.4360000 137.7069408 131.9699408   6.9700000
 137.6589408 133.0499408   8.0290000 120.1369408 123.5589408   5.8370000
 119.9919408 122.6449408   5.5950000 120.0729408 123.5669408   6.7920000
 135.3399408 140.8529408  28.1340000 134.7079408 141.5289408  27.8920000
 136.1799408 141.1839408  27.8140000 139.9039408 120.2909408  26.3150000
 139.3069408 120.0529408  27.0240000 140.2959408 121.1169408  26.5980000
 146.3759408 143.1479408  22.1470000 145.9069408 143.8409408  21.6830000
 147.2419408 143.1299408  21.7400000 128.6959408 124.9359408  26.2190000
 128.5659408 124.8349408  27.1620000 127.9669408 125.4869408  25.9330000
 125.0549408 120.9999408  27.6170000 125.2369408 121.8089408  27.1400000
 124.9239408 120.3429408  26.9330000 132.6159408 142.0489408  24.5270000
 132.7129408 141.7699408  25.4380000 133.1399408 141.4229408  24.0270000
 124.7479408 146.4299408   2.0810000 124.8309408 145.7089408   2.7050000
 123.9279408 146.8609408   2.3190000 143.3719408 149.3539408  16.9710000
 143.3079408 148.3989408  16.9860000 142.9949408 149.6059408  16.1290000
 136.2559408 143.4489408  22.4580000 135.9049408 143.5529408  21.5740000
 135.4959408 143.5559408  23.0320000 126.9949408 135.9949408  20.7340000
 126.4209408 135.7369408  21.4560000 126.9939408 136.9519408  20.7580000
 136.4109408 147.9309408  16.0400000 136.7929408 148.4529408  16.7440000
 136.9819408 148.0879408  15.2870000 134.1419408 144.1589408  24.0840000
 133.6309408 143.3779408  24.2940000 133.5819408 144.6599408  23.4910000
 133.5379408 136.9969408  22.3460000 134.1009408 136.3869408  22.8230000
 133.4289408 136.5979408  21.4830000 133.4829408 139.4799408  23.5240000
 133.6019408 138.6709408  23.0260000 134.1959408 139.4769408  24.1620000
 125.5179408 140.8639408   0.6340000 124.6129408 140.9029408   0.3240000
 125.8689408 141.7369408   0.4600000 123.9199408 143.7329408  27.9040000
 123.7749408 142.7969408  27.7640000 124.6069408 143.7729408  28.5690000
 143.3409408 145.3679408  26.2690000 143.8739408 145.7849408  25.5910000
 142.6439408 145.9989408  26.4470000 141.0999408 147.1969408  26.2780000
 140.7519408 147.3389408  25.3980000 141.3499408 148.0699408  26.5810000
 134.6979408 145.7839408  19.6430000 134.8279408 145.7939408  18.6940000
 134.6369408 144.8559408  19.8670000 131.6579408 149.4879408  25.1230000
 131.5199408 150.2759408  25.6490000 132.5939408 149.3049408  25.2060000
 125.6269408 145.5319408  22.0670000 126.1349408 145.9269408  21.3580000
 125.2669408 144.7309408  21.6870000 128.4599408 122.5539408  24.9290000
 128.0919408 121.8119408  25.4080000 128.4689408 123.2689408  25.5650000
 123.5699408 140.9729408  27.9310000 122.6959408 140.8599408  27.5580000
 124.1639408 140.6609408  27.2500000 144.5209408 137.0009408  22.3890000
 145.1209408 136.3069408  22.6620000 143.6929408 136.7869408  22.8180000
 131.6979408 140.0789408  29.7730000 130.8099408 139.8989408  29.4640000
 132.0089408 139.2409408  30.1130000 130.6369408 141.0749408  15.7480000
 131.0509408 140.3259408  16.1760000 130.8889408 140.9959408  14.8280000
 127.8009408 137.6069408  26.9660000 127.9509408 138.0929408  27.7770000
 128.6709408 137.3129408  26.6970000 134.6939408 147.6009408  29.4540000
 133.7959408 147.3609408  29.6810000 134.6029408 148.1929408  28.7070000
 134.6019408 148.8039408  23.5100000 135.1489408 148.3629408  24.1610000
 134.6489408 149.7299408  23.7450000 128.0119408 145.6129408  29.1090000
 127.3469408 145.9979408  29.6800000 127.5689408 145.4959408  28.2690000
 137.2359408 145.8399408  24.2300000 137.9919408 145.7569408  23.6490000
 136.6439408 145.1399408  23.9550000 136.3829408 145.0279408  16.5230000
 135.9809408 144.9789408  15.6560000 136.6939408 145.9299408  16.5930000
 119.8979408 145.6919408  22.9550000 119.7849408 144.8959408  23.4740000
 120.8379408 145.7319408  22.7780000 128.7329408 145.2859408   2.7840000
 129.4529408 145.3559408   2.1580000 128.2929408 146.1349408   2.7390000
 146.7709408 123.6649408  22.7270000 146.7729408 122.8369408  23.2070000
 147.3549408 124.2339408  23.2270000 125.4859408 137.0279408  25.4590000
 125.3769408 136.1209408  25.7470000 126.3439408 137.2849408  25.7970000
 129.9189408 123.5539408  21.8240000 129.1149408 123.4609408  22.3350000
 130.5089408 122.8899408  22.1800000 131.3379408 148.9519408  27.8980000
 130.3879408 148.9459408  27.7800000 131.6909408 148.7969408  27.0220000
 128.4839408 132.6569408  12.7750000 128.7579408 133.2109408  12.0450000
 129.2489408 132.1129408  12.9640000 121.1839408 143.8679408   2.2820000
 121.7039408 143.3719408   1.6500000 121.6219408 143.7219408   3.1200000
 121.2759408 140.9209408  22.3260000 121.5259408 140.2529408  21.6880000
 121.9619408 141.5849408  22.2600000 127.4129408 146.2019408  20.0570000
 127.4249408 146.6489408  19.2110000 128.2419408 146.4469408  20.4690000
 130.8449408 122.1909408  28.1290000 129.9649408 121.9919408  27.8090000
 130.7209408 122.4099408  29.0520000 132.1609408 141.0939408  27.1720000
 131.3539408 141.5889408  27.0280000 132.4389408 141.3399408  28.0540000
 141.6459408 145.8579408  19.2480000 141.8839408 145.4889408  18.3980000
 141.1379408 145.1669408  19.6750000 121.9099408 146.0429408  26.4380000
 121.0299408 146.3809408  26.2760000 121.8099408 145.4669408  27.1960000
 146.5009408 143.4099408   3.8900000 147.2679408 143.2959408   3.3290000
 146.1529408 144.2679408   3.6490000 132.1069408 148.3369408  22.1520000
 132.8629408 148.3479408  22.7390000 131.9139408 149.2609408  21.9920000
 126.9049408 149.6589408  24.4020000 127.4049408 149.1249408  25.0190000
 127.5369408 149.8999408  23.7250000 135.8789408 122.1039408  21.6990000
 135.5149408 121.9559408  22.5720000 136.7829408 121.7959408  21.7610000
 128.8949408 141.6709408  19.8570000 128.2309408 141.5909408  19.1720000
 128.9859408 140.7849408  20.2080000 139.3409408 139.3989408  20.3370000
 139.0289408 139.1119408  19.4790000 138.5439408 139.5879408  20.8320000
 134.5349408 123.3569408  28.7370000 134.1719408 122.4879408  28.5610000
 135.0539408 123.5609408  27.9590000 137.1019408 135.7249408  25.9070000
 137.7749408 136.4049408  25.8650000 136.2939408 136.1989408  26.1020000
 133.0649408 121.5539408  20.0000000 133.9649408 121.6039408  20.3230000
 132.9399408 120.6309408  19.7800000 128.2529408 121.2669408  28.1430000
 127.5959408 121.4079408  28.8250000 128.1889408 120.3329408  27.9390000
 130.1359408 142.0139408  23.1660000 130.2959408 142.4989408  22.3560000
 130.9959408 141.9489408  23.5810000 138.4869408 128.0279408   1.6070000
 139.1999408 128.3819408   2.1380000 138.0509408 128.7999408   1.2450000
 135.1319408 137.2609408  26.3960000 135.2409408 137.6919408  27.2440000
 134.5449408 136.5269408  26.5740000 127.2789408 146.4109408  26.2950000
 126.3539408 146.2849408  26.0820000 127.7199408 146.4259408  25.4460000
 134.4529408 140.9099408   3.7780000 134.3679408 140.7669408   2.8350000
 135.0229408 140.2019408   4.0770000 127.1399408 147.5469408  17.6840000
 126.8289408 147.2759408  16.8200000 126.5409408 148.2459408  17.9460000
 145.0939408 123.0129408  25.4040000 144.7599408 122.6939408  24.5660000
 145.6369408 122.2969408  25.7340000 135.7979408 148.7229408   3.2530000
 135.6619408 147.7969408   3.0530000 135.1299408 149.1799408   2.7420000
 129.0859408 121.1759408   1.1750000 128.4019408 120.5059408   1.1510000
 128.6729408 121.9539408   0.8020000 128.0329408 149.1679408  10.5370000
 128.6119408 148.8459408  11.2270000 127.5109408 149.8489408  10.9610000
 132.8329408 136.8609408  13.8650000 132.4649408 135.9809408  13.9370000
 132.1939408 137.3459408  13.3420000 128.4229408 148.5869408  27.7970000
 128.0969408 148.0029408  27.1120000 128.0209408 148.2599408  28.6020000
 133.1219408 135.2349408  26.3590000 132.9999408 134.2859408  26.3360000
 133.2029408 135.4879408  25.4390000 125.5019408 120.1759408  20.8970000
 125.1519408 120.8029408  21.5300000 125.3639408 119.3209408  21.3060000
 134.6709408 127.7959408   5.3550000 135.3629408 127.6749408   4.7050000
 134.3999408 126.9069408   5.5840000 132.2429408 126.3459408   7.8770000
 133.0639408 125.9189408   7.6340000 131.5769408 125.9019408   7.3520000
 130.7739408 126.2109408  29.9660000 131.1209408 126.8889408  30.5450000
 130.1539408 126.6719408  29.4000000 144.9609408 135.1169408   6.4150000
 144.0719408 135.3439408   6.1410000 145.4919408 135.8699408   6.1570000
 139.3769408 127.5459408  12.7920000 139.5639408 127.9789408  11.9590000
 138.9799408 128.2279408  13.3340000 149.9389408 132.9329408  20.1570000
 149.2409408 133.5489408  19.9330000 149.5489408 132.0699408  20.0180000
 143.4369408 128.0999408  14.6000000 143.0629408 128.4679408  13.7990000
 143.0709408 127.2169408  14.6520000 147.4789408 123.9939408  10.6530000
 147.3369408 124.2939408   9.7560000 147.7139408 123.0699408  10.5640000
 143.8419408 127.9109408  11.1330000 143.2649408 128.4849408  10.6300000
 144.5029408 127.6239408  10.5030000 144.1399408 121.3499408  10.9420000
 143.2239408 121.4689408  11.1920000 144.1099408 120.7419408  10.2040000
 142.8249408 141.8459408  29.9020000 143.1099408 141.1609408  30.5080000
 143.3979408 141.7459408  29.1420000 120.0609408 126.7279408  17.5830000
 120.7789408 127.3319408  17.7720000 119.7179408 127.0209408  16.7390000
 139.3879408 132.0239408   1.7080000 138.4449408 132.1189408   1.5730000
 139.5609408 131.0969408   1.5410000 138.6229408 124.8899408  12.5080000
 139.1929408 124.4829408  11.8550000 138.9969408 125.7609408  12.6440000
 148.2209408 143.3229408  14.8680000 147.5639408 143.4529408  14.1850000
 149.0359408 143.1649408  14.3900000 147.7609408 122.7849408   3.9490000
 148.2159408 122.0179408   3.6010000 147.0409408 122.9349408   3.3370000
 135.8699408 127.0169408   0.6600000 135.2029408 126.8519408   1.3270000
 136.4569408 127.6569408   1.0610000 139.5339408 137.2399408  26.6460000
 140.2919408 136.8729408  26.1910000 139.5379408 136.8119408  27.5020000
 145.9399408 125.4359408  14.7680000 146.1589408 125.8389408  13.9280000
 145.7629408 124.5199408  14.5560000 145.4509408 126.9699408   5.4990000
 144.8859408 126.2069408   5.3780000 145.7639408 127.1789408   4.6180000
 120.4629408 142.8909408  13.2580000 120.2129408 141.9829408  13.0880000
 121.3599408 142.8359408  13.5870000 134.7979408 131.2589408  20.4950000
 134.1209408 131.7319408  20.0110000 135.3779408 131.9449408  20.8280000
 138.4659408 143.8039408   9.1880000 138.8379408 144.6159408   8.8460000
 138.9149408 143.1109408   8.7040000 136.7079408 127.0059408   3.8860000
 137.1969408 127.5149408   3.2390000 136.7849408 126.0999408   3.5860000
 125.6159408 123.9159408  17.9620000 126.1299408 123.4149408  18.5940000
 125.1099408 123.2559408  17.4870000 145.2969408 125.6169408  19.7390000
 146.1719408 125.2819408  19.5430000 144.9219408 125.8239408  18.8830000
 130.5079408 127.1349408  20.9140000 131.3479408 126.7929408  20.6060000
 130.6289408 127.2549408  21.8560000 125.4309408 128.9249408  13.3460000
 124.5449408 128.8439408  13.6980000 125.4069408 129.7229408  12.8170000
 149.5329408 120.6999408   3.3760000 150.1959408 120.7629408   2.6890000
 149.1429408 119.8339408   3.2540000 139.1209408 131.3209408  13.8360000
 138.7309408 131.3989408  12.9650000 138.7629408 132.0599408  14.3270000
 143.4509408 136.6139408  17.9200000 143.0099408 137.2459408  17.3520000
 142.8429408 136.4799408  18.6470000 121.2429408 145.3819408  11.0890000
 121.8839408 144.7989408  10.6820000 120.4409408 144.8619408  11.1370000
 120.5589408 123.4369408   2.1060000 120.9039408 123.9419408   1.3700000
 119.6199408 123.3699408   1.9320000 145.4529408 143.0009408   6.3470000
 146.1639408 142.5919408   6.8410000 145.8259408 143.1649408   5.4810000
 139.8289408 132.1619408   4.8400000 140.2879408 132.3219408   5.6640000
 139.5549408 133.0299408   4.5450000 138.0169408 127.0069408  27.2190000
 137.3259408 126.5609408  27.7080000 138.0999408 126.5049408  26.4080000
 145.5609408 131.1319408  15.4750000 145.1189408 130.5969408  16.1340000
 144.8589408 131.6419408  15.0700000 121.6959408 134.5629408   5.6540000
 121.0739408 134.5129408   4.9270000 121.7619408 133.6639408   5.9750000
 146.7429408 123.6139408  17.8620000 146.4659408 124.0829408  17.0750000
 146.0469408 122.9769408  18.0200000 141.6259408 139.4869408   1.2030000
 142.4039408 139.0829408   1.5860000 141.3859408 140.1789408   1.8190000
 139.8959408 127.7829408  29.2340000 139.4559408 127.5179408  28.4260000
 139.2739408 127.5689408  29.9280000 149.2179408 143.7659408   5.8380000
 149.3659408 144.3189408   5.0710000 149.4309408 142.8809408   5.5410000
 141.2669408 120.7559408   8.5830000 141.3999408 121.0999408   9.4660000
 140.5919408 120.0849408   8.6870000 144.1839408 124.4299408  29.2750000
 143.9199408 125.0219408  28.5710000 143.4349408 124.4179408  29.8720000
 147.0209408 120.6149408  23.3560000 146.1119408 120.3729408  23.1770000
 147.4589408 119.7839408  23.5400000 147.0549408 140.3509408  13.5330000
 146.2059408 140.0659408  13.1960000 147.4329408 139.5649408  13.9270000
 143.3629408 125.0449408  11.8150000 143.7649408 125.8809408  11.5770000
 144.1039408 124.4649408  11.9930000 144.9759408 121.0289408  20.1130000
 144.6729408 121.3969408  19.2830000 144.4759408 121.4979408  20.7810000
 142.5319408 143.9129408  16.2690000 143.3199408 143.8259408  16.8050000
 142.8589408 144.0669408  15.3830000 146.3219408 127.4929408  23.9420000
 146.3019408 126.7529408  24.5480000 147.1049408 127.9849408  24.1900000
 120.1739408 131.8329408  11.6060000 120.4409408 131.6049408  12.4960000
 120.8999408 132.3529408  11.2630000 145.7369408 139.1459408   8.1800000
 144.8499408 139.1279408   8.5390000 146.1869408 138.4239408   8.6170000
 136.6539408 129.5689408   7.1000000 136.2859408 129.1019408   6.3490000
 137.5579408 129.2609408   7.1550000 138.3429408 145.7469408   6.0430000
 138.8659408 144.9999408   5.7510000 137.5969408 145.7659408   5.4440000
 124.7929408 145.8129408   5.2480000 124.3529408 146.6369408   5.4600000
 124.0799408 145.1949408   5.0880000 143.2419408 143.1659408  10.4920000
 142.9709408 143.7249408   9.7630000 142.5509408 142.5069408  10.5570000
 145.7379408 146.5139408  16.0000000 145.5399408 145.6189408  15.7260000
 144.8859408 146.8929408  16.2160000 120.0309408 126.3349408   7.2890000
 119.4529408 125.8939408   6.6650000 120.7089408 126.7369408   6.7450000
 125.4109408 121.6389408  14.1010000 126.3529408 121.5459408  13.9540000
 125.1199408 122.2449408  13.4200000 140.9789408 131.3509408  28.1040000
 141.4849408 130.7389408  28.6380000 141.4719408 131.4199408  27.2860000
 132.0409408 123.7889408   0.3090000 131.4489408 124.5119408   0.1020000
 132.7159408 123.8299408  -0.3690000 144.4599408 122.0869408  17.5660000
 144.6979408 122.1839408  16.6440000 143.9199408 121.2969408  17.5930000
 128.5499408 124.3989408  19.4280000 129.1569408 124.0959408  20.1040000
 127.8149408 123.7869408  19.4750000 147.6739408 127.2299408  28.4930000
 148.1929408 128.0039408  28.2730000 147.5139408 126.7999408  27.6530000
 141.2339408 121.7299408  11.0500000 141.0569408 121.7479408  11.9900000
 141.0979408 122.6329408  10.7630000 142.1169408 126.2239408  16.4610000
 141.5759408 126.8179408  16.9810000 141.6809408 126.1839408  15.6100000
 137.0459408 129.7769408  30.0950000 136.9329408 130.7139408  30.2500000
 137.3599408 129.7189408  29.1920000 147.9949408 121.5439408   9.2960000
 147.6689408 120.7739408   9.7610000 147.5859408 121.4939408   8.4320000
 124.1849408 139.2609408  15.5620000 123.2749408 139.4589408  15.3410000
 124.2369408 139.3929408  16.5080000 141.5719408 136.0879408  19.4610000
 141.2589408 136.5549408  20.2350000 142.0279408 135.3219408  19.8100000
 144.5889408 132.8039408  18.0590000 145.3309408 132.2919408  17.7360000
 144.9889408 133.5189408  18.5550000 122.6959408 124.0899408  21.8710000
 122.3059408 123.5869408  21.1560000 122.9999408 124.8979408  21.4560000
 149.8669408 142.4849408  23.7190000 150.5199408 142.0109408  23.2050000
 149.1229408 142.5889408  23.1250000 142.9719408 149.7709408   6.6800000
 142.3179408 150.1079408   7.2920000 143.6439408 149.3789408   7.2390000
 132.1399408 127.4559408  12.2220000 133.0799408 127.4309408  12.0430000
 131.9669408 126.6499408  12.7080000 142.2569408 132.3619408  11.4830000
 141.7519408 133.1539408  11.2990000 142.2079408 131.8529408  10.6740000
 147.9939408 128.9349408  18.7130000 148.8849408 128.7869408  19.0320000
 147.4419408 128.4079408  19.2910000 145.9349408 141.0989408  28.9360000
 145.4299408 141.0179408  28.1280000 146.4369408 141.9069408  28.8260000
 122.6369408 128.9269408   8.6340000 123.0599408 129.1289408   9.4690000
 121.7709408 129.3279408   8.7010000 121.9669408 128.2519408  18.4270000
 122.8179408 128.6559408  18.5950000 121.4089408 128.5619408  19.1400000
 147.5039408 125.9579408  12.6760000 147.6349408 125.1329408  12.2080000
 147.4329408 126.6169408  11.9850000 126.0659408 123.5049408   3.3350000
 125.7129408 124.3689408   3.5490000 125.3759408 123.0859408   2.8200000
 140.1629408 123.2489408   7.1740000 140.7889408 122.6829408   7.6270000
 139.4289408 123.3299408   7.7820000 136.8479408 149.6619408  10.6200000
 136.3209408 149.0759408  11.1630000 136.2789408 149.8849408   9.8840000
 125.8869408 130.2809408   5.3640000 125.6359408 130.8369408   6.1020000
 125.8729408 130.8659408   4.6070000 142.0509408 147.8479408  21.3780000
 142.2919408 147.3129408  20.6220000 142.4079408 148.7149408  21.1820000
 146.0049408 148.4509408  20.5770000 145.3879408 147.8689408  20.1320000
 145.6789408 149.3319408  20.3920000 135.9519408 135.9449408   0.6750000
 135.0699408 135.6069408   0.8280000 136.3909408 135.2529408   0.1800000
 142.1649408 127.7679408   8.6350000 143.0789408 127.4839408   8.6030000
 142.1279408 128.5239408   8.0490000 144.3869408 130.8979408   7.2380000
 144.6949408 131.3449408   8.0260000 145.0989408 131.0059408   6.6070000
 140.4669408 147.5979408  16.5020000 140.0149408 148.4079408  16.7400000
 139.9129408 146.9009408  16.8520000 137.1799408 144.4859408  11.5940000
 137.1339408 144.0919408  10.7230000 137.8769408 145.1389408  11.5260000
 147.1109408 127.9229408  10.7590000 146.6699408 128.6599408  11.1820000
 147.2859408 128.2279408   9.8680000 144.4309408 128.2329408   0.1660000
 144.9999408 128.8329408  -0.3160000 144.9499408 127.9689408   0.9260000
 147.6649408 137.8339408  20.4340000 147.0099408 137.9209408  21.1270000
 147.7929408 138.7259408  20.1110000 140.4459408 125.7249408   5.9510000
 140.6899408 124.9389408   6.4390000 141.2809408 126.0999408   5.6680000
 124.0989408 137.2339408  20.9040000 123.5579408 137.6299408  20.2210000
 124.7849408 137.8809408  21.0720000 143.0409408 145.6989408   7.7480000
 142.2169408 146.1149408   7.4950000 143.0589408 144.8799408   7.2530000
 135.0709408 123.1099408  11.9730000 135.9309408 122.7019408  11.8700000
 134.5769408 122.4959408  12.5170000 121.2549408 126.8109408  14.1630000
 120.3669408 126.7379408  14.5100000 121.5479408 127.6809408  14.4330000
 121.2039408 138.3319408   8.1590000 121.7869408 138.4599408   8.9080000
 120.4139408 137.9419408   8.5330000 130.8509408 138.0429408  20.5640000
 131.5169408 137.8769408  19.8970000 130.6929408 137.1879408  20.9640000
 145.3289408 133.5029408  11.5810000 145.0329408 134.2309408  12.1270000
 146.1189408 133.1829408  12.0170000 147.1119408 147.8559408  14.3000000
 146.6299408 147.3489408  14.9530000 148.0099408 147.8809408  14.6300000
 144.7879408 122.1149408   5.8990000 144.1839408 121.3719408   5.9120000
 145.6579408 121.7159408   5.9040000 139.4179408 135.1679408  16.0930000
 140.2329408 134.6729408  16.0060000 139.6999408 136.0539408  16.3210000
 147.7659408 133.5989408   3.8470000 147.7389408 133.8419408   4.7720000
 147.9009408 134.4269408   3.3850000 125.1689408 134.5189408  16.3780000
 125.8409408 134.4369408  17.0540000 124.4199408 134.9079408  16.8290000
 142.8469408 134.3839408  29.2860000 143.0729408 135.2939408  29.4810000
 142.3399408 134.4319408  28.4760000 147.8919408 135.9599408   1.8140000
 147.0629408 135.4949408   1.6950000 148.2699408 136.0039408   0.9360000
 141.4209408 125.9589408  13.7260000 140.7449408 126.4539408  13.2630000
 142.0389408 125.6999408  13.0420000 124.4059408 130.8699408   1.0480000
 123.6999408 131.4429408   1.3470000 125.1239408 131.0339408   1.6600000
 137.9489408 137.1749408  11.2960000 137.9059408 136.2389408  11.0990000
 138.8179408 137.2979408  11.6800000 145.4809408 131.9639408   9.4060000
 145.1199408 132.5119408  10.1030000 146.2799408 131.5939408   9.7810000
 147.2379408 124.9699408   8.0610000 147.3909408 125.8909408   8.2740000
 147.5609408 124.8749408   7.1650000 144.1389408 128.9709408  24.3760000
 143.4629408 128.4299408  23.9690000 144.9209408 128.4189408  24.3760000
 136.7859408 138.4209408   1.6810000 136.7219408 137.5299408   1.3370000
 137.4129408 138.8559408   1.1040000 142.8489408 133.5719408  19.9600000
 143.5609408 133.2709408  19.3950000 142.1069408 133.0129408  19.7290000
 143.2589408 120.4689408  14.2250000 143.7039408 119.7619408  13.7580000
 143.9489408 121.1049408  14.4120000 128.5139408 138.9249408   4.6940000
 128.4449408 137.9949408   4.9100000 127.8739408 139.0569408   3.9950000
 120.9149408 132.1979408   3.5130000 120.7669408 132.8599408   2.8380000
 120.2449408 131.5339408   3.3490000 136.2619408 125.6629408  11.8050000
 137.1559408 125.3529408  11.9450000 135.7269408 124.8699408  11.8260000
 145.2609408 122.5219408  15.1500000 146.1599408 122.1979408  15.2140000
 145.1129408 122.6349408  14.2110000 146.0369408 129.7699408  12.4210000
 146.3529408 129.1019408  13.0300000 145.0999408 129.8379408  12.6050000
 143.0209408 128.4339408   3.5050000 143.2149408 129.3699408   3.4500000
 143.4379408 128.1499408   4.3190000 138.3969408 121.7669408   4.5070000
 138.1719408 121.0319408   5.0770000 139.3529408 121.8069408   4.5340000
 147.9889408 129.2129408  25.4190000 148.5799408 129.2639408  26.1700000
 147.4759408 130.0199408  25.4620000 149.4079408 140.4649408  12.4830000
 148.5159408 140.4729408  12.8300000 149.2959408 140.4509408  11.5330000
 139.9099408 128.3669408  10.0660000 139.9099408 129.2509408   9.6990000
 140.6139408 127.9149408   9.6030000 142.6919408 131.3699408  26.1520000
 142.7639408 130.5559408  25.6530000 143.5839408 131.5479408  26.4510000
 142.3429408 137.8229408  13.7280000 142.4789408 138.5569408  14.3260000
 141.4959408 137.9999408  13.3180000 138.5539408 138.9259408  24.6820000
 138.7939408 138.2999408  25.3660000 139.3529408 139.4279408  24.5250000
 120.9789408 131.7839408   6.4660000 120.8059408 131.5689408   5.5490000
 120.8379408 130.9619408   6.9360000 138.5449408 126.2349408   8.9460000
 138.6869408 126.3049408   8.0020000 138.8589408 127.0669408   9.2990000
 137.5829408 122.1169408  11.6990000 137.5359408 121.9249408  12.6360000
 137.4419408 121.2719408  11.2740000 143.0879408 126.0449408   2.2860000
 143.1179408 126.9629408   2.5550000 142.5769408 126.0479408   1.4770000
 139.4299408 149.0179408   0.8690000 140.3869408 149.0099408   0.8630000
 139.1899408 148.4979408   1.6360000 143.0929408 124.5809408  26.6170000
 143.7929408 124.1529408  26.1250000 142.4559408 124.8409408  25.9520000
 149.4029408 141.3029408  16.8030000 149.1189408 142.1149408  16.3830000
 150.2919408 141.4879408  17.1050000 127.9229408 120.9289408   7.0610000
 128.3859408 121.4039408   7.7510000 127.6119408 121.6119408   6.4670000
 146.0629408 126.2019408   2.8730000 146.7759408 126.4759408   2.2960000
 145.4759408 125.7009408   2.3070000 145.4119408 140.8149408   1.5320000
 145.4999408 140.9999408   0.5970000 146.2239408 140.3649408   1.7650000
 148.3659408 125.4669408  19.3010000 148.8039408 125.9929408  18.6320000
 148.0599408 124.6899408  18.8330000 133.7059408 120.8079408  28.7940000
 132.8089408 120.6749408  29.0990000 134.2449408 120.6919408  29.5770000
 140.9419408 124.3839408  17.7550000 140.5819408 123.9059408  17.0080000
 141.5239408 125.0359408  17.3640000 139.5519408 133.4549408  29.3200000
 139.6209408 132.9329408  30.1200000 139.9389408 132.9039408  28.6400000
 149.4049408 129.7769408   1.2160000 149.7829408 129.6169408   0.3520000
 148.8879408 128.9919408   1.4010000 143.8139408 136.7889408  29.7140000
 143.7769408 137.3819408  30.4640000 144.6549408 136.9789408  29.2980000
 122.6029408 136.3849408  27.6050000 122.3689408 136.0419408  26.7430000
 123.5349408 136.1849408  27.6980000 141.4199408 133.2069408  24.2540000
 141.6209408 132.3409408  24.6100000 141.2789408 133.0559408  23.3200000
 144.3839408 136.4509408  26.5200000 144.4989408 137.3369408  26.1780000
 144.0379408 136.5779408  27.4040000 149.1759408 130.3779408  22.4850000
 148.2839408 130.5879408  22.2080000 149.0939408 130.1619408  23.4140000
 147.5159408 131.6489408  18.8270000 147.5849408 130.6959408  18.7670000
 147.6049408 131.8379408  19.7610000 148.1189408 133.0759408  23.9840000
 148.7619408 132.6759408  24.5710000 147.4529408 133.4369408  24.5690000
 120.9759408 133.9229408  26.7960000 121.2779408 134.0099408  27.7000000
 121.7439408 133.6149408  26.3150000 144.1129408 121.7349408  28.1150000
 144.7809408 121.4299408  27.5010000 144.4059408 122.6089408  28.3730000
 141.7639408 133.3609408   2.3840000 141.7739408 133.7069408   1.4920000
 140.9559408 132.8499408   2.4340000 120.6829408 124.4809408  26.5800000
 120.8219408 124.3349408  25.6450000 120.8769408 125.4089408  26.7100000
 148.0309408 145.7699408   0.2010000 147.6519408 146.3839408  -0.4290000
 148.7909408 146.2309408   0.5560000 122.9169408 130.2559408  22.9200000
 122.3259408 130.8239408  22.4250000 123.4999408 130.8599408  23.3800000
 141.1939408 124.9999408  24.4080000 140.3499408 125.2639408  24.7730000
 141.2559408 124.0639408  24.5980000 146.5439408 125.5789408  25.9390000
 145.8209408 124.9659408  25.8060000 147.3229408 125.0939408  25.6660000
 148.7599408 148.1839408   3.0480000 148.8759408 147.2849408   3.3560000
 149.4779408 148.3219408   2.4310000 122.6489408 127.0719408  23.3300000
 122.9159408 127.8839408  22.8980000 122.1039408 126.6239408  22.6820000
 142.4329408 144.4709408   0.8190000 141.6569408 144.3989408   1.3750000
 142.5059408 143.6149408   0.3970000 147.0089408 127.7539408  20.9100000
 147.1639408 127.5669408  21.8360000 146.1749408 127.3249408  20.7160000
 123.2349408 138.6979408  24.7910000 122.6099408 137.9739408  24.8150000
 124.0829408 138.2909408  24.9680000 125.1829408 135.2449408  28.7310000
 125.2499408 134.6459408  27.9880000 126.0909408 135.4169408  28.9820000
 139.5569408 139.2589408   4.7920000 139.8279408 138.5009408   4.2750000
 139.5719408 139.9889408   4.1730000 146.9399408 130.5709408   5.5480000
 147.2969408 131.4359408   5.7460000 147.5429408 130.2049408   4.9000000
 142.1869408 127.3489408  23.2340000 142.6329408 127.2299408  22.3960000
 141.9849408 126.4599408  23.5270000 143.0549408 146.8219408  15.9560000
 142.1179408 146.8199408  16.1500000 143.1779408 146.0819408  15.3610000
 146.0829408 134.9759408  22.9120000 146.8299408 134.5689408  22.4730000
 146.1679408 134.7089408  23.8270000 121.7139408 124.7479408   4.2270000
 121.3929408 124.3309408   3.4270000 121.0859408 124.4889408   4.9010000
 146.7119408 148.8939408   1.2240000 147.5319408 148.5429408   1.5710000
 146.3319408 149.3829408   1.9540000 144.2559408 143.5429408  18.3680000
 144.2759408 142.7569408  18.9150000 145.1489408 143.6239408  18.0320000
 147.4089408 148.0439408  28.3580000 146.8659408 148.5749408  28.9420000
 148.0689408 148.6529408  28.0260000 126.1619408 141.5309408  25.3790000
 126.6229408 142.3089408  25.0660000 126.8009408 140.8229408  25.2930000
 144.1759408 138.5089408   1.7660000 144.5339408 139.3739408   1.5650000
 144.8279408 138.1069408   2.3410000 145.2449408 135.1359408  19.2390000
 144.6809408 135.3399408  19.9860000 145.0279408 135.8009408  18.5860000
 147.8889408 122.9389408   0.7890000 147.1389408 122.3659408   0.9500000
 147.5709408 123.8159408   1.0000000 137.5889408 125.9449408  21.8650000
 137.9269408 125.0509408  21.9150000 138.2399408 126.4199408  21.3480000
 138.6329408 123.7929408  27.6990000 139.4459408 123.2949408  27.6140000
 138.5859408 124.0199408  28.6280000 149.2179408 131.7099408  26.2810000
 149.3859408 131.1539408  27.0420000 149.5759408 132.5639408  26.5240000
 140.0679408 126.6019408  20.6770000 140.4109408 125.7399408  20.4420000
 140.8469408 127.1369408  20.8290000 149.4139408 123.1659408  16.0720000
 149.2369408 122.3849408  16.5970000 148.9069408 123.8589408  16.4960000
 146.1419408 132.3979408  27.6270000 145.4329408 132.2329408  28.2480000
 146.9029408 132.5879408  28.1750000 137.8799408 127.6249408  24.1220000
 137.7579408 126.6759408  24.0920000 137.0159408 127.9709408  24.3480000
 141.5639408 135.6829408  25.4200000 142.2419408 135.5029408  26.0710000
 141.3869408 134.8329408  25.0160000 149.8499408 122.5939408  28.7080000
 149.3119408 122.9239408  29.4270000 149.7199408 123.2259408  28.0010000
 144.0009408 124.7069408   5.0710000 143.8849408 124.5229408   4.1390000
 144.2479408 123.8649408   5.4530000 148.6979408 124.9809408  23.9730000
 149.2289408 125.6649408  24.3820000 149.2709408 124.2149408  23.9480000
 122.5169408 123.7909408  28.9940000 122.3399408 124.7299408  29.0370000
 122.0049408 123.4829408  28.2460000 129.8899408 131.8059408  17.1790000
 130.2009408 131.2239408  17.8720000 130.1229408 131.3559408  16.3660000
 122.2539408 135.9619408  24.7120000 121.4929408 135.4689408  24.4070000
 123.0069408 135.4519408  24.4130000 140.1359408 136.2199408  28.9780000
 139.9219408 135.3049408  28.7990000 140.5769408 136.2019408  29.8280000
 140.0029408 129.2039408  23.4090000 140.8009408 128.6759408  23.4560000
 139.3039408 128.6049408  23.6730000 143.6059408 132.7209408  14.1930000
 143.3069408 132.6279408  13.2890000 143.8659408 133.6389408  14.2670000
 141.9269408 138.4589408  27.4240000 141.6859408 139.2179408  27.9550000
 141.2059408 137.8409408  27.5460000 140.6599408 140.6539408  28.5530000
 140.8069408 140.9329408  29.4560000 140.5649408 141.4699408  28.0610000
 143.0969408 127.0939408  20.7320000 143.5719408 127.7899408  20.2780000
 143.5829408 126.2959408  20.5220000 120.1209408 127.1739408  25.0360000
 121.0009408 127.3079408  24.6820000 119.6779408 128.0119408  24.9010000
 141.2829408 124.2129408  10.2370000 142.1709408 124.4309408  10.5200000
 140.9569408 125.0169408   9.8310000 125.2779408 131.5559408   7.5480000
 124.8449408 130.9229408   8.1220000 125.5749408 132.2489408   8.1370000
 126.0519408 126.0389408  12.9900000 126.7619408 125.9259408  12.3580000
 125.9799408 126.9859408  13.1040000 145.8779408 134.2189408  25.3820000
 145.9199408 133.5969408  26.1090000 145.3539408 134.9449408  25.7190000
 146.9689408 146.1229408  22.1750000 147.8909408 146.2139408  22.4190000
 146.8059408 146.8519408  21.5770000 120.5089408 129.7659408  13.8980000
 119.8269408 129.7809408  14.5700000 120.2249408 129.0889408  13.2830000
 142.0069408 133.9469408  16.1180000 142.6479408 133.3789408  15.6900000
 142.4899408 134.3509408  16.8390000 141.3509408 143.5839408  27.1550000
 142.0519408 144.1379408  26.8110000 140.8199408 144.1729408  27.6900000
 123.1369408 135.9089408  17.4420000 123.2879408 136.7359408  17.8990000
 122.3239408 136.0479408  16.9560000 144.1139408 123.7159408  21.1230000
 144.5879408 124.4759408  20.7840000 144.5419408 123.5189408  21.9560000
 119.8739408 129.2279408  27.4500000 120.4399408 129.4969408  26.7260000
 120.4529408 128.7489408  28.0430000 133.7419408 126.4529408  15.6390000
 134.2449408 126.8479408  14.9270000 133.4279408 127.1979408  16.1520000
 148.1879408 132.5169408  29.3490000 149.0379408 132.9559408  29.3450000
 148.2049408 131.9679408  30.1330000 123.9139408 134.3159408  20.0960000
 123.3239408 135.0459408  20.2810000 123.8699408 134.2069408  19.1460000
 139.3529408 129.0949408  19.9650000 138.9699408 129.8979408  20.3180000
 139.1119408 128.4159408  20.5960000 137.2159408 122.2419408  14.2630000
 137.4569408 121.6839408  15.0030000 136.9959408 123.0849408  14.6600000
 125.4609408 134.3169408  26.1370000 124.8509408 133.6819408  25.7600000
 126.2679408 133.8219408  26.2740000 126.1759408 123.6459408  23.8610000
 127.0319408 123.4339408  24.2340000 125.6269408 123.8449408  24.6190000
 120.6509408 134.1239408  23.5250000 119.7119408 133.9479408  23.5810000
 120.9809408 133.4709408  22.9080000 122.0539408 132.5049408  21.6720000
 122.7779408 133.0489408  21.3630000 121.3189408 132.7389408  21.1060000
 147.4739408 128.2959408   7.3770000 147.0789408 129.0559408   6.9490000
 147.4529408 127.6089408   6.7110000 124.6389408 128.2059408   0.3610000
 124.5499408 129.1419408   0.5400000 125.5799408 128.0399408   0.4160000
 123.5789408 125.2939408  14.7230000 124.2869408 125.7469408  14.2640000
 122.8469408 125.9109408  14.7040000 134.3679408 128.5949408  20.4910000
 134.4269408 129.5469408  20.5680000 134.3979408 128.4279408  19.5490000
 122.4339408 149.4479408  21.3220000 121.7669408 148.7629408  21.3040000
 122.1439408 150.0829408  20.6670000 139.6399408 137.0629408  21.6660000
 140.2749408 137.2579408  22.3550000 139.4069408 137.9179408  21.3040000
 147.1349408 132.3819408  21.4320000 146.3539408 131.8949408  21.6950000
 147.7049408 132.3559408  22.2000000 121.7099408 124.5589408  17.3620000
 121.2679408 124.1129408  16.6390000 121.0809408 125.2169408  17.6580000
 123.7859408 123.1389408   5.5410000 124.7399408 123.2159408   5.5740000
 123.5029408 123.8839408   5.0110000 142.3099408 130.3559408  21.7640000
 141.7209408 131.1059408  21.6740000 141.7629408 129.6659408  22.1410000
 148.6129408 140.5529408  20.3810000 149.2029408 140.8629408  21.0670000
 148.5069408 141.3039408  19.7970000 138.5159408 145.7009408   0.7170000
 138.6129408 146.6029408   1.0230000 139.1969408 145.5999408   0.0510000
 144.3199408 135.3179408  13.4330000 143.7379408 136.0469408  13.2200000
 144.8819408 135.6559408  14.1310000 142.5469408 135.5769408   4.2880000
 141.8889408 136.0879408   3.8160000 142.4899408 134.7009408   3.9070000
 139.5539408 120.0589408  17.2370000 139.8519408 120.3489408  16.3750000
 138.6799408 120.4369408  17.3290000 144.5779408 146.1839408  19.7680000
 145.3119408 145.7339408  19.3490000 143.8019408 145.8429408  19.3220000
 141.9709408 149.7309408   4.2900000 141.4919408 150.5529408   4.3860000
 142.2929408 149.5359408   5.1700000 139.7779408 143.9979408  13.5600000
 140.2779408 144.1409408  12.7560000 140.3799408 143.5269408  14.1360000
 136.2369408 122.5929408   7.0360000 136.4979408 121.7169408   6.7530000
 137.0569408 123.0199408   7.2820000 137.8549408 123.6489408   8.8230000
 138.0219408 124.5789408   8.9790000 137.6949408 123.2839408   9.6930000
 140.3289408 144.1079408   2.8240000 139.6049408 144.5969408   2.4350000
 140.2499408 144.2699408   3.7640000 141.6989408 120.0119408  19.4060000
 142.3109408 119.7979408  18.7010000 140.9559408 120.4209408  18.9620000
 147.1489408 141.4149408   8.1260000 147.0169408 141.9989408   8.8730000
 146.3659408 140.8649408   8.1090000 141.1139408 122.1109408   4.7390000
 141.1109408 122.6599408   5.5240000 141.5609408 122.6399408   4.0780000
 142.0079408 130.1399408  16.2200000 141.9829408 130.3189408  15.2790000
 142.8879408 129.7949408  16.3750000 136.6089408 138.0909408  13.3550000
 136.7289408 137.5009408  12.6110000 137.4469408 138.5439408  13.4390000
 147.8639408 137.4319408   9.3610000 147.7469408 137.2979408  10.3010000
 148.3079408 138.2779408   9.2930000 121.0329408 145.6039408  13.9710000
 120.2089408 145.2399408  14.2930000 121.2309408 145.0919408  13.1870000
 121.9339408 149.6879408  18.6420000 122.2469408 148.7839408  18.6550000
 121.5109408 149.7829408  17.7880000 121.1559408 138.4609408  20.0400000
 120.2709408 138.7809408  19.8660000 121.0349408 137.5459408  20.2950000
 122.0799408 148.3339408   3.5080000 121.6479408 148.7749408   2.7770000
 122.4669408 149.0439408   4.0210000 137.4589408 139.6149408   6.9330000
 136.5709408 139.2699408   7.0270000 137.7209408 139.3639408   6.0470000
 145.5019408 145.3549408  28.7860000 146.3499408 144.9159408  28.7100000
 145.0439408 145.1329408  27.9750000 146.6749408 137.5639408  13.5590000
 146.2789408 137.7839408  14.4030000 146.8119408 136.6169408  13.5990000
 139.9319408 143.5469408   5.4520000 139.4589408 142.7149408   5.4690000
 140.8459408 143.3059408   5.6030000 143.0439408 141.6259408  13.4910000
 142.5689408 141.6099408  12.6600000 143.9519408 141.4399408  13.2520000
 141.5259408 147.0239408   3.9340000 141.8329408 146.7029408   3.0860000
 141.8009408 147.9409408   3.9570000 142.5659408 143.1829408   6.2490000
 142.5139408 142.3989408   6.7960000 143.4839408 143.2299408   5.9820000
 122.7359408 143.2419408  21.7040000 122.8889408 143.6109408  20.8350000
 122.5469408 143.9999408  22.2570000 145.2289408 123.2469408  12.4100000
 144.8559408 122.6399408  11.7710000 146.0849408 123.4789408  12.0500000
 123.0529408 146.7679408  15.5720000 122.4119408 146.2939408  15.0430000
 123.1159408 147.6289408  15.1590000 144.1119408 141.8259408   3.7350000
 144.7569408 142.4489408   4.0690000 144.4369408 141.5849408   2.8680000
 145.3229408 136.5199408   3.7300000 145.4299408 135.8639408   3.0410000
 144.4889408 136.2979408   4.1450000 121.2079408 144.3789408  28.9760000
 120.7519408 143.5889408  29.2650000 122.1189408 144.1049408  28.8680000
 145.6729408 140.8899408  23.2500000 145.9379408 141.6929408  22.8020000
 145.0279408 140.4909408  22.6670000 148.0719408 135.0429408  14.1250000
 148.3279408 134.1539408  13.8810000 148.7059408 135.6059408  13.6790000
 141.4969408 137.6769408   8.9910000 140.6869408 137.9649408   9.4120000
 141.2069408 137.1699408   8.2330000 141.3089408 141.2979408  10.9070000
 140.3719408 141.3809408  11.0840000 141.3559408 140.9219408  10.0280000
 139.9409408 145.9629408  28.3800000 139.0549408 146.3189408  28.3170000
 140.3819408 146.2749408  27.5900000 142.7679408 139.3119408  17.3790000
 142.3009408 140.0629408  17.0110000 143.4259408 139.6989408  17.9570000
 139.7129408 141.5399408   7.5910000 139.1179408 140.8719408   7.2500000
 140.5109408 141.0599408   7.8100000 143.7039408 137.7479408  10.5130000
 144.1529408 136.9339408  10.2860000 142.9529408 137.7799408   9.9200000
 147.4709408 145.8359408   6.5070000 147.7579408 144.9329408   6.6370000
 147.3959408 145.9299408   5.5570000 147.1539408 145.2229408  18.8610000
 147.2309408 144.5909408  18.1470000 147.9429408 145.7599408  18.7930000
 148.9979408 135.2499408  17.3840000 148.6679408 135.0439408  18.2580000
 148.5579408 134.6249408  16.8080000 137.0249408 142.7099408  17.6690000
 136.8809408 142.0149408  17.0260000 136.7759408 143.5139408  17.2140000
 145.5159408 122.1409408   2.2740000 144.6969408 122.6339408   2.2290000
 145.2789408 121.3189408   2.7030000 147.8379408 136.4779408   4.9610000
 147.1649408 136.4449408   4.2810000 148.2269408 137.3489408   4.8720000
 138.1619408 131.4479408  18.1310000 138.1129408 131.6889408  19.0560000
 139.0279408 131.7449408  17.8520000 131.7949408 124.1809408  15.4660000
 131.0579408 124.3869408  16.0420000 132.4969408 124.7619408  15.7580000
 144.6279408 149.7129408   3.2650000 143.6809408 149.5999408   3.3410000
 144.9819408 149.3039408   4.0550000 144.1549408 148.4689408   8.6710000
 144.9869408 147.9959408   8.6860000 143.5239408 147.8559408   9.0480000
 147.6299408 148.3429408   7.5860000 147.5669408 147.3909408   7.5050000
 147.5549408 148.5079408   8.5260000 146.7179408 143.2369408  17.1170000
 147.0469408 143.5299408  16.2670000 146.4409408 142.3329408  16.9690000
 148.6429408 143.4169408   2.1320000 149.5469408 143.7219408   2.2000000
 148.2299408 144.0239408   1.5180000 138.1019408 149.3339408  13.8490000
 138.8249408 149.9569408  13.9170000 138.5209408 148.5029408  13.6270000
 120.8829408 135.8929408  20.9960000 121.0199408 135.6469408  21.9110000
 120.0429408 135.4959408  20.7640000 149.7119408 147.0349408  18.1520000
 149.5509408 147.4989408  17.3300000 149.2639408 147.5589408  18.8150000
 127.1339408 143.6299408  17.5170000 126.9599408 144.4419408  17.0430000
 127.4829408 143.0339408  16.8540000 124.8129408 140.6049408  20.3340000
 124.8989408 141.5329408  20.5520000 124.8869408 140.1529408  21.1740000
 145.3029408 146.0099408  11.7730000 145.0519408 145.5969408  10.9470000
 144.6769408 146.7259408  11.8830000 135.4609408 143.4619408   3.0360000
 135.9439408 143.2799408   2.2300000 135.3659408 142.6069408   3.4560000
 133.5109408 147.9189408  15.3630000 134.4469408 147.8499408  15.5500000
 133.2639408 147.0499408  15.0470000 145.1669408 145.1589408   1.8110000
 144.2559408 144.8679408   1.8270000 145.3879408 145.2049408   0.8810000
 141.1539408 147.1659408   6.5480000 141.4189408 146.9389408   5.6570000
 141.5359408 148.0299408   6.7000000 137.0539408 146.8609408  28.2050000
 136.3929408 147.1089408  28.8510000 136.5519408 146.4939408  27.4770000
 136.0469408 124.5639408  15.7710000 136.0809408 124.5099408  16.7260000
 135.4529408 125.2939408  15.5940000 122.8799408 147.4629408  12.2670000
 122.0239408 147.0379408  12.2150000 123.2679408 147.3299408  11.4030000
 148.6919408 139.2009408   3.8620000 149.5599408 138.8229408   3.7170000
 148.1619408 138.8679408   3.1380000 147.3199408 138.8899408   1.5420000
 147.8129408 139.1749408   0.7720000 147.3469408 137.9339408   1.5040000
 120.1709408 145.8719408   3.6420000 120.6029408 145.3299408   2.9810000
 120.8439408 146.4929408   3.9200000 141.9069408 140.2649408   8.2860000
 141.7919408 139.3209408   8.3890000 142.4119408 140.3589408   7.4790000
 140.8209408 145.7819408  11.5460000 140.6039408 145.9449408  10.6280000
 140.7959408 146.6459408  11.9560000 147.3569408 121.1799408   6.2670000
 147.6309408 121.6629408   5.4870000 148.0139408 120.4909408   6.3660000
 138.4929408 140.8929408  11.3400000 138.2899408 140.2629408  10.6490000
 137.8709408 141.6069408  11.2050000 147.5929408 148.9229408  10.4380000
 147.4519408 149.3709408  11.2720000 148.5019408 148.6269408  10.4740000
 129.8979408 148.3239408  17.5680000 130.5479408 147.6229408  17.5210000
 129.0609408 147.8869408  17.4100000 120.6229408 145.0849408  19.8260000
 121.5509408 144.8679408  19.9130000 120.5909408 145.7159408  19.1080000
 132.2699408 136.4249408  28.7760000 132.9509408 137.0969408  28.8060000
 132.4539408 135.9319408  27.9760000 149.5049408 129.6089408   3.9390000
 149.2369408 129.4409408   3.0360000 150.3389408 129.1489408   4.0320000
 144.9399408 148.5519408  12.8940000 145.6679408 148.0659408  13.2810000
 145.3499408 149.3119408  12.4820000 146.2609408 140.5759408  16.5330000
 145.9599408 139.7359408  16.1870000 147.1519408 140.4039408  16.8380000
 120.1289408 120.2789408   6.1440000 120.1339408 120.2069408   5.1890000
 120.6739408 119.5509408   6.4420000 140.1059408 146.3139408   8.9570000
 140.3829408 146.3689408   8.0430000 139.8789408 147.2129408   9.1940000
 143.6379408 149.1839408  27.3740000 143.8629408 148.6559408  28.1400000
 143.7149408 150.0889408  27.6760000 137.8029408 121.4979408   2.0150000
 137.8179408 121.3079408   2.9530000 137.9959408 120.6579408   1.5970000
 141.2849408 141.4409408   3.2030000 142.1909408 141.6019408   3.4660000
 140.9289408 142.3109408   3.0260000 144.8339408 138.1349408  15.5300000
 145.1179408 137.2749408  15.8380000 144.2629408 138.4619408  16.2250000
 145.9399408 143.0769408  10.1740000 145.0409408 142.8989408  10.4490000
 145.8779408 143.8789408   9.6550000 127.8459408 124.6539408  28.8310000
 128.2209408 124.7389408  29.7070000 127.3629408 123.8279408  28.8550000
 120.5509408 143.0329408   8.3860000 120.1859408 143.4379408   7.6000000
 119.8569408 143.1109408   9.0410000 141.0919408 122.8469408  27.7180000
 141.6289408 122.2659408  28.2570000 141.7059408 123.5029408  27.3870000
 139.0939408 145.2559408  17.6310000 138.8449408 145.5209408  18.5160000
 138.5189408 144.5169408  17.4310000 144.6889408 146.4959408  23.9890000
 145.4609408 146.4079408  23.4300000 144.0209408 145.9579408  23.5630000
 139.7889408 147.3129408  23.2930000 140.5389408 147.1429408  22.7230000
 139.6029408 148.2449408  23.1720000 146.0789408 148.6559408   5.3270000
 146.5179408 148.9459408   6.1270000 146.5309408 147.8469408   5.0860000
 141.9989408 147.5469408   1.0180000 142.9239408 147.6119408   0.7810000
 141.7279408 146.6889408   0.6910000 137.6129408 140.7449408   3.2240000
 137.4149408 139.8939408   2.8320000 137.7729408 141.3209408   2.4770000
 148.7029408 143.2359408  20.3090000 149.5569408 143.6369408  20.1500000
 148.0819408 143.8059408  19.8540000 139.1839408 142.3919408  19.3730000
 138.8759408 142.0519408  20.2130000 138.3959408 142.4469408  18.8330000
 148.9259408 139.3549408  29.1130000 148.4939408 139.0299408  28.3230000
 149.7449408 138.8629408  29.1590000 142.4529408 142.8319408  24.3870000
 143.2899408 143.2969408  24.4070000 141.9209408 143.3219408  23.7600000
 149.3329408 140.1069408   9.6110000 150.1389408 140.5079408   9.2850000
 148.7129408 140.1949408   8.8870000 149.7389408 121.2499408  22.7270000
 149.9719408 120.5979408  22.0660000 148.7969408 121.1349408  22.8560000
 134.6139408 144.3099408  28.8680000 133.7559408 144.7329408  28.8890000
 135.0889408 144.7639408  28.1720000 121.4839408 140.5129408  26.1210000
 121.9909408 139.8839408  25.6070000 120.8779408 140.9039408  25.4910000
 146.4009408 130.1289408  29.6700000 146.3809408 130.6799408  30.4520000
 146.2529408 130.7369408  28.9450000 149.0999408 146.4319408  25.9860000
 148.5239408 146.4859408  26.7480000 148.5919408 145.9469408  25.3350000
 147.4289408 144.6289408  24.5640000 146.6139408 144.5409408  24.0710000
 147.3679408 143.9629408  25.2490000 146.4519408 138.2429408  23.9800000
 146.5979408 139.0739408  23.5290000 145.5169408 138.0689408  23.8690000
 146.6279408 125.1689408  30.1560000 145.8039408 124.7719408  29.8740000
 146.6229408 126.0389408  29.7570000 122.8429408 145.7119408  23.1490000
 123.7689408 145.4969408  23.0340000 122.8479408 146.5679408  23.5780000
 143.8769408 141.7659408  27.1800000 144.5629408 142.2469408  26.7180000
 143.0929408 142.3049408  27.0720000 148.0669408 135.0089408  20.1910000
 148.0739408 135.9439408  19.9830000 147.1889408 134.8459408  20.5340000
 146.0639408 137.5379408  28.8710000 146.7539408 136.9079408  28.6660000
 146.4249408 138.3839408  28.6060000 149.9059408 148.0329408  21.8660000
 149.3759408 148.3819408  22.5830000 150.0419408 147.1129408  22.0930000
 147.5559408 143.3009408  28.4550000 148.1949408 143.8009408  28.9620000
 148.0589408 142.9369408  27.7270000 147.8099408 137.9179408  26.6380000
 147.3599408 138.3039408  25.8870000 147.8709408 136.9859408  26.4280000
 140.8229408 140.4389408  24.5460000 141.4419408 141.1659408  24.6110000
 140.8099408 140.2179408  23.6140000 146.1169408 120.6769408  26.5390000
 145.8869408 120.0879408  25.8210000 146.9099408 120.2969408  26.9170000
 144.0979408 132.2559408  29.3850000 143.7049408 133.1289408  29.3770000
 143.3609408 131.6629408  29.5350000 123.7959408 122.6399408   1.5360000
 123.1589408 123.0979408   0.9870000 123.2689408 122.0539408   2.0780000
 149.0779408 142.0099408  26.4940000 149.7929408 141.5059408  26.8830000
 149.4689408 142.4279408  25.7270000 146.4579408 142.1029408  25.8250000
 147.2999408 141.6859408  26.0080000 146.1359408 141.6579408  25.0400000
 144.2699408 149.2149408  24.6630000 144.2869408 148.9489408  25.5820000
 144.4699408 148.4149408  24.1780000 139.3969408 142.8279408  25.2380000
 139.5079408 142.1059408  24.6190000 140.1119408 142.7199408  25.8640000
 140.7379408 123.9019408  20.2470000 140.8629408 123.9519408  19.3000000
 141.6089408 124.0529408  20.6130000 149.0199408 148.8129408  24.3330000
 149.8619408 149.1639408  24.6250000 148.8459408 148.0819408  24.9260000
 136.8359408 121.2099408  27.0900000 137.4759408 120.5949408  27.4500000
 137.1229408 122.0669408  27.4050000 146.1579408 146.4039408   3.9090000
 145.6669408 147.2129408   4.0520000 145.8099408 146.0549408   3.0890000
 137.0399408 148.4119408  24.8180000 137.5809408 148.5059408  25.6020000
 137.1749408 147.5059408  24.5410000 143.6199408 144.9529408  22.0760000
 142.8519408 144.5989408  21.6270000 144.1499408 145.3379408  21.3780000
 141.2529408 143.5169408  20.7880000 140.5179408 143.0819408  20.3570000
 140.8559408 143.9929408  21.5170000 123.1729408 149.6979408  23.8650000
 122.8949408 149.4999408  22.9710000 123.6089408 150.5479408  23.7990000
 144.4219408 129.4159408  20.1160000 145.2529408 129.6309408  20.5400000
 143.7539408 129.7569408  20.7110000 122.7039408 141.1609408   0.5350000
 121.8629408 141.6189408   0.5440000 122.8899408 141.0209408  -0.3940000
 138.5739408 146.5729408  19.9790000 139.3969408 147.0059408  20.2050000
 137.9349408 146.9379408  20.5900000 143.9579408 121.6669408  23.3620000
 143.0839408 121.9459408  23.6370000 144.0009408 120.7409408  23.6010000
 148.8059408 136.1259408  29.0390000 149.4149408 136.8549408  28.9240000
 149.3669408 135.3549408  29.1220000 143.5929408 140.4459408   6.1030000
 144.4549408 140.0469408   6.2220000 143.6239408 140.8299408   5.2270000
 141.0189408 141.9559408  17.3460000 140.6409408 142.0609408  18.2200000
 141.4569408 142.7889408  17.1720000 149.3579408 126.4659408  21.7420000
 148.9689408 126.1709408  20.9190000 149.0259408 125.8529408  22.3980000
 125.0389408 140.2599408  23.3180000 125.4329408 140.8059408  23.9980000
 124.2329408 139.9279408  23.7140000 144.5659408 147.9129408  29.5880000
 144.9279408 147.0679408  29.3220000 145.1819408 148.2429408  30.2420000
 142.3159408 120.6029408   0.0200000 142.8489408 120.3259408   0.7650000
 142.9519408 120.8169408  -0.6630000 122.0639408 122.4419408  19.6400000
 122.0359408 123.1009408  18.9460000 121.3919408 121.8059408  19.3950000
 136.0279408 149.2599408  18.5900000 135.0909408 149.1729408  18.4130000
 136.1359408 148.9249408  19.4800000 140.3859408 144.2079408  23.2040000
 140.0829408 145.1069408  23.3300000 139.8389408 143.6859408  23.7910000
 120.8689408 126.2169408   0.9050000 121.1979408 126.6709408   0.1290000
 121.6129408 126.1979408   1.5060000 124.5629408 145.8619408  25.9740000
 123.6279408 146.0279408  26.0910000 124.7009408 144.9909408  26.3480000
 130.0009408 146.2329408  21.9690000 130.8279408 145.7619408  22.0740000
 130.2609408 147.1449408  21.8330000 133.1139408 149.2469408  18.1040000
 133.4209408 148.6579408  17.4150000 132.3449408 149.6749408  17.7280000
 124.1209408 133.6749408  43.7610000 124.0209408 134.4239408  44.3480000
 124.6659408 133.0579408  44.2490000 139.4019408 137.0039408  33.4620000
 139.3069408 136.1259408  33.8320000 138.6369408 137.1089408  32.8970000
 141.2879408 125.2629408  59.9310000 140.5409408 124.9539408  60.4440000
 140.9199408 125.9259408  59.3470000 126.9639408 147.2739408  34.1330000
 126.2589408 146.7169408  34.4630000 126.9889408 148.0129408  34.7410000
 141.1249408 121.1489408  51.7350000 140.9649408 120.2999408  51.3230000
 141.6349408 121.6379408  51.0890000 126.7109408 138.7099408  51.4700000
 126.3839408 139.3649408  52.0880000 127.6529408 138.8729408  51.4250000
 131.8849408 131.9679408  42.0810000 131.2899408 131.2449408  42.2800000
 132.7569408 131.5759408  42.1090000 125.8789408 126.9689408  38.7010000
 125.4139408 126.1719408  38.4480000 125.9029408 127.4959408  37.9020000
 135.1049408 137.8279408  45.6050000 134.2939408 137.6459408  45.1300000
 135.7899408 137.7719408  44.9380000 120.6359408 134.0729408  38.5360000
 119.8129408 134.3929408  38.1640000 120.9089408 133.3719408  37.9450000
 138.8559408 138.6129408  39.2840000 138.4689408 138.1719408  40.0410000
 138.1489408 139.1559408  38.9360000 129.0639408 128.6819408  47.8260000
 128.4579408 128.2489408  48.4280000 129.3939408 127.9759408  47.2700000
 131.2259408 131.3479408  35.7040000 130.6419408 131.7979408  36.3140000
 131.6789408 130.6969408  36.2400000 137.4669408 135.2269408  47.9080000
 137.9479408 135.1439408  48.7320000 138.1319408 135.1079408  47.2300000
 142.0799408 129.5039408  36.3360000 141.9909408 129.7379408  35.4120000
 142.7389408 130.1109408  36.6740000 125.6149408 133.6859408  38.9500000
 125.7649408 133.7169408  39.8950000 124.7539408 134.0859408  38.8300000
 149.3079408 138.9599408  45.2020000 149.6479408 139.5329408  45.8900000
 149.8979408 139.0979408  44.4610000 122.5329408 127.1629408  58.8470000
 123.2739408 127.5749408  59.2930000 122.8629408 126.9599408  57.9720000
 132.9309408 145.5519408  44.1980000 133.8639408 145.3599408  44.1090000
 132.5239408 145.1209408  43.4470000 148.0369408 125.5629408  35.5490000
 147.0969408 125.6829408  35.4130000 148.2159408 124.6789408  35.2300000
 138.3629408 141.3589408  30.6810000 137.7089408 142.0489408  30.5670000
 138.2789408 140.8169408  29.8970000 130.6849408 135.9839408  36.6650000
 131.1339408 136.8249408  36.7490000 129.8769408 136.0929408  37.1670000
 138.4319408 124.8569408  55.0460000 138.1149408 124.5139408  55.8810000
 138.3719408 124.1159408  54.4430000 148.7999408 129.9389408  45.7730000
 147.8609408 129.9999408  45.5990000 148.8569408 129.5959408  46.6650000
 122.3889408 140.7699408  33.8460000 123.1819408 141.3059408  33.8470000
 122.6729408 139.9199408  34.1820000 137.9779408 134.4559408  40.6650000
 137.2519408 134.3639408  40.0480000 137.7039408 133.9559408  41.4340000
 129.6549408 144.0029408  60.1860000 129.0479408 144.5939408  59.7410000
 130.5229408 144.3469408  59.9750000 133.5299408 134.6779408  30.5350000
 132.9009408 133.9769408  30.7060000 133.0779408 135.2629408  29.9270000
 136.9329408 142.0279408  43.3670000 137.2779408 142.9039408  43.1980000
 137.6629408 141.4399408  43.1730000 124.4319408 148.7859408  56.2340000
 124.8979408 148.1089408  55.7430000 123.7839408 149.1269408  55.6170000
 131.7599408 143.1179408  38.5430000 131.6899408 143.8819408  37.9720000
 132.0759408 142.4179408  37.9710000 134.5309408 146.0489408  31.8910000
 135.1549408 146.0429408  31.1650000 134.9719408 145.5639408  32.5890000
 121.5889408 127.8679408  35.1380000 121.9129408 127.0799408  34.7030000
 122.3749408 128.2939408  35.4810000 124.3779408 121.6949408  46.6380000
 123.4469408 121.8319408  46.4640000 124.7679408 121.5709408  45.7730000
 136.9779408 134.3809408  58.3850000 137.8199408 133.9829408  58.6060000
 137.1409408 134.8459408  57.5640000 131.0189408 122.1809408  48.1460000
 130.7569408 123.1019408  48.1390000 131.6919408 122.1279408  48.8240000
 135.1549408 120.6799408  38.8720000 134.7649408 121.4279408  38.4200000
 135.0899408 119.9599408  38.2450000 135.4189408 134.0349408  43.0950000
 134.8099408 133.9809408  43.8320000 134.8679408 134.2559408  42.3440000
 126.8749408 146.9259408  39.7580000 127.0919408 147.8089408  40.0560000
 127.0169408 146.9499408  38.8120000 132.2769408 129.0759408  56.9600000
 131.8759408 129.8269408  56.5240000 132.9859408 129.4519408  57.4820000
 148.5349408 135.5709408  37.6430000 148.4489408 136.1489408  36.8850000
 148.1879408 136.0809408  38.3750000 128.3539408 126.3839408  33.5020000
 129.0179408 126.9059408  33.0520000 127.9879408 126.9769408  34.1590000
 144.3849408 129.4109408  47.3650000 144.7209408 128.5179408  47.2950000
 144.2909408 129.5589408  48.3060000 127.7939408 133.7699408  37.0920000
 127.1589408 133.5089408  37.7590000 128.3649408 133.0079408  36.9930000
 129.0859408 122.8069408  42.3010000 129.2659408 123.2629408  41.4790000
 129.7729408 123.1059408  42.8980000 135.8509408 133.9929408  39.0110000
 135.1649408 134.5659408  38.6690000 135.4019408 133.1709408  39.2080000
 127.6489408 137.3009408  42.5020000 127.1329408 137.8939408  43.0490000
 127.6139408 136.4609408  42.9600000 142.4549408 123.6049408  32.6640000
 141.6819408 123.5749408  32.1000000 142.7979408 124.4919408  32.5530000
 141.2289408 140.5009408  44.9470000 140.8759408 141.0379408  45.6570000
 141.9479408 141.0209408  44.5870000 127.2079408 128.2029408  59.8520000
 127.3599408 128.7419408  60.6280000 128.0649408 128.1409408  59.4310000
 130.4099408 145.8839408  56.7950000 130.4019408 146.2829408  55.9250000
 129.6159408 146.2129408  57.2170000 131.1919408 146.2969408  31.5580000
 131.2509408 147.2469408  31.6600000 131.6389408 145.9449408  32.3270000
 124.6869408 123.6109408  42.3470000 123.8339408 123.9499408  42.0730000
 125.2309408 124.3909408  42.4540000 133.1469408 132.3189408  57.0580000
 133.5739408 132.0469408  56.2450000 133.8619408 132.4039408  57.6880000
 131.3659408 140.8169408  42.9800000 131.3449408 141.5859408  42.4090000
 132.2869408 140.5579408  42.9990000 135.5709408 124.5019408  53.2080000
 136.1229408 125.1429408  52.7600000 135.2669408 123.9189408  52.5130000
 134.5329408 139.5259408  37.8070000 134.0209408 138.9609408  38.3850000
 133.9069408 140.1799408  37.4950000 124.9169408 134.0799408  36.0540000
 125.2429408 133.2809408  36.4690000 124.3959408 134.5079408  36.7330000
 131.9419408 124.9309408  48.4310000 132.8109408 125.3169408  48.3240000
 131.7659408 124.9919408  49.3700000 122.9999408 143.7209408  34.9930000
 122.5599408 143.1309408  35.6050000 123.7909408 143.2499408  34.7310000
 129.3909408 125.9979408  43.5600000 128.4679408 125.8209408  43.7410000
 129.5449408 125.6099408  42.6990000 126.4589408 139.0469408  44.2110000
 125.7969408 138.9559408  44.8960000 127.0899408 139.6709408  44.5690000
 132.7269408 124.7419408  43.0350000 133.5559408 124.2759408  42.9230000
 132.3699408 124.4009408  43.8560000 130.9189408 135.5149408  41.9010000
 130.0709408 135.1079408  41.7250000 130.7289408 136.4519408  41.9560000
 131.2779408 128.6519408  39.3500000 131.3409408 127.9429408  39.9910000
 130.6729408 129.2789408  39.7440000 127.3769408 148.8119408  31.6800000
 126.6809408 148.2869408  31.2850000 127.2869408 148.6599408  32.6210000
 135.6899408 138.6069408  34.5490000 135.8669408 138.6029408  33.6090000
 136.2479408 137.9129408  34.9010000 126.0069408 120.8799408  34.4630000
 126.8559408 120.4709408  34.2940000 126.1609408 121.8149408  34.3310000
 129.4119408 128.7209408  36.5640000 129.9009408 128.4549408  37.3430000
 130.0189408 129.2819408  36.0810000 130.9679408 138.3959408  45.9660000
 131.6029408 137.8829408  45.4660000 130.1389408 137.9329408  45.8490000
 129.0729408 130.0809408  39.9790000 129.3089408 130.3209408  40.8750000
 128.1399408 129.8699408  40.0250000 128.6629408 143.0849408  35.7270000
 129.1639408 142.7029408  36.4480000 129.3049408 143.2099408  35.0280000
 132.1909408 123.0269408  36.6490000 132.5829408 123.5069408  37.3790000
 132.8259408 122.3399408  36.4440000 122.7639408 130.3209408  45.9390000
 122.1979408 130.7929408  45.3280000 122.1579408 129.8679408  46.5260000
 123.7929408 125.9289408  48.5460000 124.5359408 125.3939408  48.2680000
 123.0419408 125.5539408  48.0850000 127.2649408 125.4869408  40.7700000
 126.6499408 126.0649408  40.3180000 127.6409408 124.9459408  40.0760000
 124.4899408 124.3149408  38.6110000 123.8189408 123.6769408  38.8510000
 124.7519408 124.0669408  37.7250000 138.2059408 131.1969408  41.0920000
 138.7899408 131.1579408  40.3350000 137.3289408 131.0939408  40.7250000
 132.6159408 122.7419408  32.6460000 132.2479408 123.1119408  31.8440000
 133.2749408 123.3789408  32.9240000 143.6789408 139.2509408  55.6230000
 142.9449408 138.9459408  56.1550000 144.0749408 139.9529408  56.1400000
 123.9959408 130.0319408  49.2360000 124.7059408 129.4889408  48.8920000
 124.1359408 130.8909408  48.8370000 133.6049408 129.6929408  33.1680000
 134.0819408 128.9459408  33.5280000 134.2209408 130.4239408  33.2310000
 130.6809408 131.2849408  30.4750000 130.9629408 131.9649408  29.8630000
 130.5939408 131.7389408  31.3140000 126.1979408 148.7859408  37.3920000
 125.6229408 149.3219408  37.9370000 126.9389408 149.3569408  37.1890000
 135.6389408 126.6119408  38.9870000 135.6199408 126.6119408  39.9440000
 136.5409408 126.8459408  38.7660000 136.1629408 140.3279408  39.8410000
 135.8969408 140.1039408  38.9500000 135.7949408 139.6309408  40.3840000
 138.8369408 139.6889408  43.6890000 139.6529408 139.8079408  44.1740000
 139.0429408 139.9709408  42.7980000 127.3569408 134.9479408  44.1060000
 126.7409408 134.6609408  44.7800000 127.7119408 134.1349408  43.7450000
 142.1589408 131.9809408  38.6940000 142.2029408 132.9319408  38.6020000
 142.8179408 131.6489408  38.0840000 121.5759408 121.8369408  42.3790000
 121.6699408 121.3979408  41.5340000 121.7809408 122.7539408  42.1980000
 129.7979408 133.5629408  50.7020000 129.9119408 132.6129408  50.6900000
 130.2249408 133.8659408  49.9000000 125.8779408 131.1339408  58.3530000
 126.6849408 131.2089408  58.8610000 125.1959408 130.9759408  59.0060000
 132.6309408 133.1459408  44.3340000 132.2629408 133.3379408  43.4710000
 132.9819408 132.2589408  44.2530000 130.1429408 128.5439408  32.9460000
 130.7999408 128.6049408  32.2530000 130.5939408 128.8529408  33.7320000
 124.7069408 135.4199408  53.1280000 124.5639408 135.8999408  52.3120000
 124.9709408 136.0909408  53.7570000 122.9149408 136.4549408  44.3630000
 123.5279408 137.1049408  44.7050000 122.2449408 136.3749408  45.0420000
 129.9729408 121.6209408  39.1660000 130.8859408 121.7839408  38.9290000
 130.0159408 121.2549408  40.0490000 132.5159408 129.3919408  37.0440000
 132.9239408 128.9559408  36.2950000 132.6179408 128.7729408  37.7670000
 140.6819408 134.5549408  40.8580000 140.4699408 134.9719408  41.6930000
 139.8309408 134.3559408  40.4670000 138.2509408 130.8129408  57.5970000
 137.9399408 130.8729408  56.6940000 139.1989408 130.9269408  57.5330000
 125.0659408 132.1979408  48.1450000 125.8319408 131.7159408  47.8330000
 124.6889408 132.5859408  47.3550000 124.4699408 126.9909408  51.0950000
 124.3759408 126.7169408  50.1820000 124.4599408 127.9469408  51.0610000
 136.7989408 128.8369408  51.9130000 136.1259408 128.2629408  51.5470000
 137.3839408 128.2479408  52.3890000 137.3339408 121.3149408  47.3720000
 137.1459408 122.1649408  47.7700000 136.5919408 120.7639408  47.6200000
 124.3569408 144.6489408  43.1330000 125.1819408 145.0809408  42.9100000
 123.8739408 145.2999408  43.6410000 126.0859408 134.8579408  41.4430000
 125.4669408 135.3769408  40.9300000 125.9959408 135.1919408  42.3360000
 133.4409408 136.1729408  38.5040000 133.3789408 135.9409408  37.5780000
 132.7799408 136.8539408  38.6260000 128.5019408 124.1379408  38.6120000
 128.8629408 124.4539408  37.7840000 128.9809408 123.3279408  38.7890000
 129.2219408 149.9579408  49.5540000 129.1209408 149.3189408  48.8490000
 129.7729408 150.6449408  49.1780000 125.8979408 146.1729408  45.7840000
 124.9769408 146.4009408  45.6590000 126.2559408 146.1269408  44.8980000
 124.1719408 128.0399408  36.5580000 123.5999408 128.3309408  37.2680000
 124.3229408 128.8259408  36.0330000 140.9309408 128.1219408  47.8530000
 140.4899408 128.4399408  48.6410000 141.2959408 128.9089408  47.4480000
 123.5469408 149.1949408  44.3880000 123.4529408 148.7309408  43.5560000
 124.0779408 149.9629408  44.1760000 127.6459408 135.5889408  30.5610000
 128.1379408 134.9059408  31.0160000 128.1499408 136.3889408  30.7110000
 129.7719408 122.8839408  35.6410000 130.6209408 122.7349408  36.0590000
 129.7999408 122.3549408  34.8440000 129.0259408 136.3989408  45.6100000
 128.7289408 136.0099408  46.4320000 128.4029408 136.0809408  44.9560000
 144.9449408 130.7089408  52.4340000 144.4059408 130.1399408  52.9830000
 144.3479408 131.3989408  52.1430000 132.9919408 126.0789408  50.9050000
 133.2669408 126.9929408  50.8340000 133.4549408 125.7489408  51.6750000
 133.9919408 130.0189408  59.0960000 134.7189408 129.4589408  59.3680000
 134.3539408 130.5539408  58.3890000 135.0069408 127.1169408  58.0480000
 135.2319408 127.0419408  58.9750000 134.1499408 126.6969408  57.9740000
 139.7759408 137.0209408  36.7930000 139.6259408 137.7959408  36.2530000
 139.1299408 137.0889408  37.4960000 144.9269408 135.3199408  39.5870000
 145.3159408 134.5869408  40.0650000 145.3279408 135.2809408  38.7190000
 125.7419408 131.5499408  42.2860000 125.5099408 131.7689408  43.1890000
 126.5849408 131.9799408  42.1450000 149.0709408 122.3679408  43.5800000
 149.1899408 122.7229408  44.4610000 149.9599408 122.2269408  43.2550000
 135.3469408 127.8619408  43.5700000 135.5059408 127.1419408  42.9600000
 136.2199408 128.1279408  43.8590000 133.9419408 147.7469408  41.2050000
 133.6119408 147.6369408  42.0970000 133.2129408 148.1429408  40.7270000
 121.1999408 137.8119408  59.4490000 121.9049408 138.0979408  60.0290000
 121.6469408 137.3699408  58.7280000 122.4759408 133.4329408  41.5170000
 122.9669408 133.3179408  42.3310000 122.3929408 134.3819408  41.4200000
 124.0809408 130.9719408  40.1910000 123.3579408 131.5829408  40.3280000
 124.6869408 131.1519408  40.9110000 122.4699408 122.2689408  39.4860000
 121.9209408 123.0069408  39.2190000 121.8819408 121.5139408  39.4670000
 123.0199408 136.0899408  41.5960000 122.9749408 136.1599408  42.5500000
 123.1089408 136.9939408  41.2930000 132.5739408 134.1909408  46.7410000
 132.6879408 133.7449408  45.9010000 133.3929408 134.6689408  46.8720000
 135.7109408 132.0629408  58.0250000 136.5479408 131.6029408  58.0980000
 135.9129408 132.9669408  58.2670000 129.4949408 135.9309408  33.8740000
 129.7659408 135.7989408  34.7830000 129.9059408 136.7569408  33.6190000
 128.0449408 138.2839408  47.2700000 127.8129408 137.5769408  47.8720000
 128.2419408 137.8409408  46.4450000 128.0199408 121.0509408  44.0630000
 128.1869408 121.8039408  43.4960000 128.5849408 121.1939408  44.8240000
 132.3299408 143.4389408  34.0320000 131.5709408 142.9229408  33.7610000
 133.0749408 143.0059408  33.6160000 123.8559408 148.2669408  36.1100000
 123.5329408 149.1219408  35.8250000 124.7399408 148.4389408  36.4320000
 122.1229408 142.1309408  47.8600000 122.8419408 141.8089408  47.3180000
 122.3069408 143.0629408  47.9750000 138.9909408 128.3469408  35.9690000
 139.9089408 128.3779408  36.2400000 138.8449408 127.4349408  35.7200000
 125.8029408 136.0779408  34.3120000 126.5949408 135.6419408  33.9980000
 125.6179408 135.6609408  35.1540000 135.6349408 131.6509408  33.7230000
 136.4549408 131.1739408  33.8460000 135.4639408 132.0589408  34.5730000
 133.6209408 135.0579408  41.2560000 132.8359408 135.3699408  41.7060000
 133.5009408 135.3309408  40.3470000 126.7349408 130.4089408  46.9120000
 127.6709408 130.2119408  46.8740000 126.3309408 129.5979408  47.2210000
 129.1019408 139.7299408  52.1000000 129.8669408 139.3959408  51.6300000
 129.3469408 140.6199408  52.3550000 128.8879408 140.4159408  31.5990000
 128.2829408 139.7779408  31.9770000 128.7719408 141.2019408  32.1330000
 133.4439408 120.5639408  35.1250000 134.2609408 120.5429408  35.6220000
 133.7179408 120.5099408  34.2090000 128.1309408 137.3219408  39.6840000
 128.1119408 138.2399408  39.4110000 127.9969408 137.3509408  40.6310000
 131.8609408 128.8709408  30.8180000 131.4729408 129.7019408  30.5460000
 132.8049408 129.0259408  30.7920000 134.0549408 140.7059408  49.8650000
 133.1819408 140.5199408  50.2090000 134.1139408 140.1809408  49.0660000
 128.7819408 134.8269408  40.5120000 127.8989408 134.6719408  40.8490000
 128.7299408 135.6859408  40.0920000 145.7759408 135.5769408  45.5950000
 146.5949408 135.4519408  45.1160000 145.8309408 134.9639408  46.3280000
 134.7319408 125.0299408  36.7360000 135.2879408 124.2539408  36.6670000
 135.2679408 125.6689408  37.2060000 134.7409408 138.3739408  58.8420000
 135.0239408 139.2489408  58.5730000 135.2609408 138.1829408  59.6220000
 134.8019408 135.4929408  46.8610000 134.9129408 136.3009408  46.3600000
 135.6729408 135.3059408  47.2110000 127.7279408 133.2519408  56.7680000
 127.4999408 132.7349408  57.5410000 128.4259408 133.8349408  57.0650000
 138.8059408 138.6449408  59.5420000 139.1739408 137.7629408  59.4910000
 139.4979408 139.2139408  59.2050000 147.4529408 132.4809408  42.6510000
 146.9679408 131.6609408  42.7380000 148.3159408 132.2169408  42.3320000
 139.8039408 130.9529408  38.8190000 140.7069408 131.2619408  38.7410000
 139.2889408 131.5889408  38.3220000 133.6759408 132.0399408  38.3110000
 132.9579408 132.4469408  38.7970000 133.3909408 131.1369408  38.1740000
 124.4319408 119.9699408  39.1520000 124.9539408 120.3289408  39.8690000
 123.7079408 120.5879408  39.0490000 123.1979408 135.2869408  37.9950000
 122.5999408 135.4139408  37.2590000 122.7259408 134.7069408  38.5910000
 133.4919408 130.2479408  45.4210000 134.1179408 130.9619408  45.5410000
 134.0109408 129.5349408  45.0460000 148.8019408 126.7519408  45.1170000
 148.5949408 126.3399408  44.2790000 147.9779408 127.1509408  45.3980000
 126.3509408 132.5299408  50.8020000 125.7639408 132.6359408  50.0530000
 126.8079408 133.3679408  50.8690000 122.1939408 122.4329408  45.0200000
 121.9859408 122.0149408  44.1840000 122.7589408 123.1699408  44.7850000
 140.3539408 121.1919408  44.3940000 141.2449408 121.0649408  44.0680000
 140.3279408 122.1089408  44.6690000 132.9529408 138.1909408  34.7110000
 132.8259408 138.4779408  35.6150000 133.8859408 138.3269408  34.5450000
 131.2079408 133.2309408  39.6310000 131.4929408 133.1859408  40.5430000
 130.4689408 133.8389408  39.6400000 125.2889408 136.5969408  31.2440000
 126.1979408 136.4009408  31.4730000 125.0949408 136.0109408  30.5130000
 125.9609408 121.2959408  40.8390000 126.7089408 121.8909408  40.8830000
 125.2019408 121.8499408  41.0230000 134.0369408 129.3019408  40.0320000
 133.0859408 129.2279408  39.9500000 134.3769408 128.5189408  39.5980000
 133.8409408 135.9929408  49.9150000 133.3829408 135.6059408  49.1690000
 134.1529408 136.8389408  49.5910000 137.9259408 133.8949408  44.1400000
 136.9729408 133.9149408  44.2200000 138.2449408 134.1439408  45.0080000
 137.9639408 124.7779408  30.3340000 137.0519408 125.0459408  30.4500000
 138.1979408 124.3589408  31.1630000 126.0819408 131.7559408  33.1260000
 125.2619408 132.2489408  33.0890000 126.7199408 132.3779408  33.4750000
 140.7849408 131.9599408  47.6010000 141.3309408 131.2469408  47.2700000
 140.9109408 132.6709408  46.9720000 136.0959408 130.7469408  39.5820000
 135.3069408 130.3579408  39.9590000 136.3329408 130.1619408  38.8630000
 131.8799408 131.9409408  33.1400000 131.5959408 131.9629408  34.0530000
 132.2839408 131.0799408  33.0340000 130.6029408 138.1769408  42.3180000
 129.6709408 138.0139408  42.4610000 130.6839408 139.1309408  42.3230000
 136.8019408 140.5669408  45.9690000 137.5409408 139.9729408  45.8380000
 136.7199408 141.0359408  45.1380000 126.3819408 123.8779408  36.2780000
 126.8239408 124.1609408  37.0780000 126.7769408 124.4079408  35.5850000
 137.8219408 130.6709408  54.7140000 137.0509408 130.2079408  54.3860000
 138.5589408 130.2549408  54.2680000 140.9929408 136.8169408  31.4860000
 141.3499408 137.6909408  31.3270000 140.4049408 136.9299408  32.2320000
 147.1529408 133.0869408  46.5300000 147.5009408 132.5009408  47.2020000
 146.4709408 132.5749408  46.0950000 148.4819408 130.9349408  39.6410000
 148.8959408 131.1749408  40.4700000 148.9019408 131.4979408  38.9910000
 134.8989408 146.5689408  38.8670000 134.8359408 146.8249408  39.7880000
 134.8469408 145.6129408  38.8800000 126.4319408 129.2409408  39.6680000
 125.6539408 129.7959408  39.6110000 126.1929408 128.4429408  39.1960000
 137.9739408 130.1959408  34.3400000 138.5639408 130.9399408  34.4650000
 138.2259408 129.5729408  35.0210000 134.5639408 131.3319408  42.5050000
 135.3129408 131.9219408  42.4160000 134.8419408 130.5249408  42.0710000
 125.8949408 139.3489408  40.4970000 125.2319408 139.5939408  41.1420000
 125.4229408 138.8129408  39.8600000 130.5329408 124.8369408  41.0850000
 130.4469408 125.5079408  40.4070000 131.3799408 125.0149408  41.4930000
 128.3729408 143.4639408  43.1860000 129.1639408 143.9339408  42.9220000
 127.6539408 143.9979408  42.8490000 128.0019408 133.8009408  34.2870000
 128.6839408 134.4149408  34.0160000 127.9259408 133.9279408  35.2330000
 128.5919408 140.0079408  41.6570000 127.6919408 139.6829408  41.6220000
 128.5009408 140.9549408  41.7650000 128.5059408 149.5499408  34.7200000
 129.2599408 149.8159408  34.1930000 128.6619408 149.9459408  35.5770000
 124.0379408 147.2559408  39.9530000 124.9729408 147.0479408  39.9550000
 123.9999408 148.1869408  39.7350000 137.8569408 125.7969408  36.3200000
 138.7739408 125.6119408  36.1180000 137.3679408 125.4069408  35.5960000
 144.8209408 127.4299408  38.6100000 144.9309408 126.7309408  37.9650000
 145.4989408 128.0679408  38.3900000 129.6499408 131.8419408  37.8760000
 130.4039408 132.2779408  38.2730000 129.2779408 131.3139408  38.5820000
 137.8409408 131.3329408  51.0730000 137.5779408 130.4969408  51.4570000
 137.0239408 131.8229408  50.9800000 136.4069408 123.6289408  49.0480000
 137.1099408 124.2789408  49.0450000 136.1969408 123.5069408  49.9740000
 131.6449408 128.1269408  53.6070000 131.9199408 127.4939408  54.2710000
 131.9309408 128.9729408  53.9510000 138.3389408 128.6359408  47.0160000
 138.1949408 129.4509408  47.4970000 139.2549408 128.4159408  47.1850000
 127.8239408 129.7049408  31.9020000 128.6989408 129.3949408  32.1340000
 127.3699408 129.7939408  32.7400000 127.4669408 129.5539408  56.4890000
 127.0789408 130.1509408  57.1290000 127.8689408 130.1279408  55.8380000
 133.4879408 128.3599408  47.7820000 132.5719408 128.4729408  48.0380000
 133.7179408 129.1799408  47.3450000 147.1329408 133.4899408  36.5760000
 146.2129408 133.7239408  36.4540000 147.5309408 134.2739408  36.9540000
 125.3919408 129.8369408  51.5440000 124.4879408 130.0839408  51.7380000
 125.8819408 130.6569408  51.5990000 135.6989408 133.6459408  51.5090000
 134.9289408 134.2119408  51.4530000 135.7449408 133.3939408  52.4310000
 125.3759408 125.8509408  34.5400000 125.9379408 126.5929408  34.3170000
 125.1269408 126.0039408  35.4520000 141.4999408 140.8909408  51.6630000
 141.5299408 141.8449408  51.5890000 141.2169408 140.5929408  50.7990000
 136.1989408 132.7839408  54.3270000 136.9519408 132.3809408  54.7590000
 135.5079408 132.1229408  54.3830000 140.3079408 132.6819408  51.5200000
 139.5659408 132.7069408  52.1230000 140.0339408 133.2229408  50.7790000
 143.5869408 131.2759408  33.3410000 142.6949408 131.6219408  33.3230000
 144.1119408 131.9439408  32.9000000 127.8799408 146.0279408  53.7110000
 128.5289408 146.2299408  53.0370000 127.0729408 145.8609408  53.2240000
 138.4169408 134.7709408  50.7260000 138.8399408 135.1919408  51.4750000
 137.5249408 134.5919408  51.0240000 134.9759408 135.1649408  53.9550000
 135.6309408 135.7189408  53.5300000 135.4869408 134.4979408  54.4130000
 140.1269408 137.4139408  47.2570000 140.8569408 138.0169408  47.1180000
 140.2649408 137.0689408  48.1390000 137.7229408 129.0149408  44.5310000
 138.2079408 129.8399408  44.5330000 137.7629408 128.7109408  45.4380000
 137.0589408 124.2909408  33.6940000 137.3229408 123.4279408  34.0130000
 136.3329408 124.1129408  33.0950000 132.1429408 133.0499408  53.4810000
 132.7959408 133.1569408  52.7890000 131.8279408 133.9369408  53.6530000
 129.2999408 124.7489408  46.6790000 128.4779408 124.7659408  46.1890000
 129.0309408 124.7099408  47.5970000 130.2849408 129.8869408  42.5980000
 130.8409408 129.1149408  42.4900000 130.1829408 129.9779408  43.5460000
 131.5199408 130.6549408  54.6330000 131.7749408 131.4879408  54.2350000
 130.7539408 130.3749408  54.1320000 148.8309408 127.2719408  32.2880000
 148.8699408 126.9779408  33.1980000 149.5399408 126.7969408  31.8530000
 132.8319408 126.0959408  55.8560000 132.2219408 126.7999408  56.0740000
 132.2899408 125.4319408  55.4300000 142.0739408 129.3869408  59.4840000
 142.9599408 129.0269408  59.4310000 141.4999408 128.6319408  59.3590000
 137.8369408 125.8009408  48.3520000 138.7399408 125.6199408  48.0890000
 137.7859408 126.7559408  48.3950000 135.8959408 139.4069408  54.8660000
 135.5879408 138.8379408  55.5710000 136.8499408 139.3899408  54.9430000
 132.3099408 137.8379408  48.4750000 131.5999408 137.7869408  47.8350000
 132.9599408 138.4099408  48.0670000 141.5769408 130.0929408  43.5580000
 140.8019408 130.5149408  43.9290000 141.6999408 130.5189408  42.7100000
 123.0429408 132.8729408  55.6090000 123.5349408 132.7249408  54.8020000
 122.7319408 132.0039408  55.8640000 134.6799408 149.2389408  56.7010000
 135.3729408 149.7719408  56.3100000 134.3379408 149.7769408  57.4150000
 125.6739408 143.6199408  30.0820000 126.0949408 143.8689408  30.9050000
 126.3839408 143.2649408  29.5480000 123.0279408 138.2679408  31.4330000
 123.1569408 139.2159408  31.4620000 123.8729408 137.9189408  31.1520000
 125.6639408 128.1749408  48.2520000 126.2629408 127.8789408  48.9380000
 125.1889408 127.3859408  47.9920000 125.9109408 126.2639408  53.1760000
 125.8639408 125.3079408  53.1610000 125.2579408 126.5469408  52.5370000
 123.5549408 132.7819408  33.2750000 122.7219408 132.4139408  33.5720000
 123.4619408 133.7249408  33.4110000 132.0799408 122.2879408  55.6550000
 131.8949408 122.3419408  56.5920000 131.6749408 123.0719408  55.2840000
 123.4729408 129.6029408  57.1470000 123.7089408 128.7169408  56.8730000
 124.0979408 129.8149408  57.8400000 140.1159408 123.8369408  45.0270000
 140.6079408 124.5009408  44.5440000 139.2639408 123.8059408  44.5920000
 129.1499408 149.6889408  52.5040000 129.9349408 150.2339408  52.5540000
 129.1679408 149.3219408  51.6200000 130.2899408 136.9219408  56.2360000
 130.6129408 136.3839408  55.5120000 130.5349408 137.8159408  55.9980000
 125.6959408 126.5609408  57.9650000 126.2729408 126.7839408  57.2350000
 126.2299408 126.7069408  58.7460000 129.0229408 130.0999408  53.4030000
 128.3649408 130.6929408  53.7660000 128.5369408 129.3039408  53.1870000
 122.6359408 129.1879408  42.6550000 122.1249408 129.8089408  43.1730000
 121.9839408 128.6069408  42.2650000 130.1199408 121.7629408  33.4120000
 129.5699408 121.8339408  32.6310000 130.9739408 122.0939408  33.1340000
 135.5569408 145.5499408  56.2860000 134.8219408 144.9969408  56.0220000
 136.0899408 145.6339408  55.4950000 127.1549408 127.1399408  55.5410000
 126.6739408 127.0259408  54.7220000 127.2739408 128.0859408  55.6200000
 134.3109408 130.8199408  55.0000000 133.4729408 130.6859408  54.5580000
 134.6099408 129.9379408  55.2200000 144.7679408 126.0699408  47.1460000
 143.8289408 126.0299408  46.9640000 145.1819408 125.7409408  46.3480000
 125.1569408 131.4689408  45.1180000 124.3929408 131.0489408  45.5120000
 125.9069408 131.0229408  45.5130000 136.3049408 137.8459408  48.6500000
 136.4699408 138.5339408  48.0040000 136.6669408 137.0539408  48.2540000
 131.4229408 121.4139408  52.3640000 131.7979408 121.2949408  53.2370000
 132.1729408 121.6199408  51.8060000 124.3739408 122.0349408  52.5920000
 125.0449408 122.5869408  52.9950000 123.7539408 122.6539408  52.2080000
 127.8019408 136.5439408  37.0640000 127.6149408 135.6139408  37.1890000
 127.8329408 136.9049408  37.9500000 129.5459408 134.8449408  57.9910000
 129.9689408 135.6099408  57.6000000 129.0599408 135.1949408  58.7380000
 121.7749408 120.6259408  58.9360000 122.5749408 121.0719408  59.2140000
 121.1079408 121.3129408  58.9280000 132.7309408 132.2139408  48.9580000
 132.2289408 131.4239408  48.7610000 132.6519408 132.7509408  48.1690000
 123.0389408 147.9559408  58.5700000 123.2659408 147.7619408  57.6600000
 122.9049408 148.9029408  58.5870000 128.8229408 139.2789408  58.8730000
 129.0599408 138.7649408  59.6450000 128.2279408 139.9509408  59.2050000
 130.8119408 124.5099408  54.7060000 129.9129408 124.5729408  55.0290000
 130.7219408 124.4639408  53.7540000 128.1589408 131.4079408  59.5170000
 129.1069408 131.5379408  59.5250000 127.9899408 130.8219408  60.2550000
 127.4109408 128.2469408  52.5390000 127.0039408 127.3889408  52.6570000
 126.8979408 128.6629408  51.8460000 125.9589408 122.4859408  59.6520000
 125.4029408 122.4139408  60.4270000 125.4749408 122.0279408  58.9650000
 148.9339408 119.9049408  57.3680000 149.3039408 120.6489408  57.8430000
 149.4589408 119.8439408  56.5700000 138.8269408 123.5309408  52.3500000
 138.8589408 122.6169408  52.6340000 139.3369408 123.5479408  51.5400000
 133.0339408 134.4019408  33.2410000 133.4299408 134.6769408  32.4150000
 132.6019408 133.5729408  33.0360000 134.6579408 121.6439408  54.3280000
 135.2989408 121.5509408  55.0330000 133.8909408 122.0299408  54.7510000
 129.2199408 130.8319408  50.8010000 128.2959408 130.9889408  50.6070000
 129.2279408 130.5439408  51.7140000 128.1889408 137.1529408  53.5900000
 129.0689408 137.0679408  53.9560000 127.9749408 138.0809408  53.6910000
 127.2109408 128.0059408  35.3860000 126.6419408 128.7579408  35.5510000
 127.9689408 128.1489408  35.9520000 141.0649408 129.6399408  32.0140000
 141.5329408 129.0169408  32.5690000 141.5449408 129.6309408  31.1850000
 124.8949408 138.8529408  36.4910000 125.2919408 139.6979408  36.7040000
 125.4089408 138.5259408  35.7530000 120.8779408 149.1329408  31.2170000
 121.1779408 149.6449408  30.4660000 121.0379408 148.2229408  30.9670000
 126.9089408 124.5699408  45.4710000 126.4269408 125.1219408  44.8560000
 126.2819408 124.3849408  46.1700000 135.2509408 128.2789408  55.3330000
 134.5369408 127.6459408  55.4040000 135.7219408 128.2039408  56.1630000
 136.1519408 136.8349408  36.9130000 135.4469408 136.5409408  36.3350000
 135.7099408 137.0769408  37.7270000 121.6169408 129.6609408  55.2060000
 122.3259408 129.5369408  55.8370000 122.0529408 129.9679408  54.4120000
 135.4429408 120.1609408  43.2290000 136.1079408 119.5109408  43.4580000
 135.5879408 120.8799408  43.8430000 144.0269408 139.3799408  51.4100000
 144.2849408 138.4959408  51.6720000 143.1719408 139.5119408  51.8210000
 134.3959408 138.1949408  40.7400000 134.3709408 138.1429408  41.6950000
 134.2869408 137.2889408  40.4480000 125.1149408 124.0059408  56.8730000
 124.1869408 124.1409408  56.6820000 125.3489408 124.7299408  57.4530000
 124.5679408 132.7609408  53.3450000 124.5269408 133.7069408  53.4870000
 124.8839408 132.6679408  52.4460000 141.5419408 122.2789408  54.3060000
 141.1949408 122.1159408  53.4290000 141.4429408 121.4439408  54.7630000
 134.6329408 143.1429408  40.1660000 134.8209408 143.6079408  39.3500000
 134.7559408 142.2189408  39.9490000 135.3159408 132.0549408  46.3340000
 134.9349408 132.8129408  46.7780000 136.1729408 131.9419408  46.7450000
 142.2929408 137.8109408  53.8080000 142.1829408 137.0259408  54.3450000
 142.7159408 138.4419408  54.3890000 129.7159408 137.2639408  30.6440000
 130.4809408 136.8889408  30.2080000 130.0779408 137.7609408  31.3780000
 129.6429408 147.8269408  54.9720000 129.4569408 147.5769408  54.0670000
 130.3899408 148.4219408  54.9080000 127.2109408 131.8149408  54.3940000
 126.3699408 132.1359408  54.0660000 127.5599408 132.5409408  54.9100000
 120.1669408 128.8079408  50.3710000 119.8829408 128.0049408  50.8070000
 119.9809408 129.5029408  51.0020000 131.3649408 129.9299408  48.7550000
 130.7509408 129.2719408  48.4300000 131.2129408 129.9549408  49.7000000
 134.3869408 140.9349408  31.0510000 133.5169408 141.2199408  30.7720000
 134.8489408 140.7409408  30.2360000 130.7769408 129.9669408  45.3550000
 131.7099408 130.1599408  45.2610000 130.7469408 129.1889408  45.9110000
 123.5569408 127.1909408  56.0440000 124.3569408 126.6719408  56.1280000
 123.4109408 127.2549408  55.1000000 139.8279408 135.7489408  43.0870000
 140.5869408 135.7009408  43.6680000 139.2939408 134.9909408  43.3260000
 120.9909408 134.1799408  59.6390000 121.5389408 134.9439408  59.4570000
 120.9489408 134.1369408  60.5940000 131.3459408 133.1939408  58.8840000
 130.7059408 133.7409408  58.4290000 131.9039408 132.8469408  58.1880000
 148.4329408 121.3169408  47.7720000 148.3759408 120.3929408  48.0160000
 148.3789408 121.7879408  48.6040000 136.9629408 136.6139408  52.6300000
 136.8069408 137.5369408  52.8310000 137.8629408 136.5879408  52.3060000
 146.9299408 131.9079408  31.8610000 146.9209408 132.4829408  32.6270000
 147.6339408 131.2839408  32.0360000 135.8339408 123.3109408  31.4930000
 136.3929408 122.5349408  31.4550000 135.4889408 123.4019408  30.6050000
 120.8749408 123.4179408  53.9600000 120.5559408 122.5409408  53.7490000
 121.6379408 123.5389408  53.3940000 133.8929408 139.7199408  47.2500000
 133.8199408 140.5249408  46.7370000 134.7049408 139.3139408  46.9450000
 130.5189408 127.1779408  45.9270000 130.5439408 126.3239408  46.3590000
 130.1409408 126.9999408  45.0660000 135.9109408 147.6449408  50.9300000
 135.4609408 146.9469408  50.4540000 135.2979408 147.8989408  51.6190000
 135.5579408 124.1889408  56.1150000 134.8629408 124.8469408  56.1260000
 135.7909408 124.1009408  55.1910000 129.3779408 128.0839408  58.2570000
 128.8019408 128.1769408  57.4980000 130.1869408 128.5259408  58.0000000
 127.9469408 127.0969408  49.7360000 127.9239408 126.1409408  49.7090000
 128.7869408 127.3059408  50.1460000 136.8989408 149.9439408  35.6780000
 136.7499408 149.2089408  36.2740000 136.6159408 149.6199408  34.8230000
 129.8299408 147.2289408  35.4010000 128.9329408 147.4469408  35.1470000
 130.3679408 147.5429408  34.6740000 138.4289408 149.3959408  58.3290000
 137.9429408 148.5779408  58.2260000 138.7299408 149.3839408  59.2380000
 121.1219408 126.0539408  39.6410000 120.6489408 126.3209408  38.8530000
 121.9209408 126.5809408  39.6320000 131.1519408 142.9069408  50.7830000
 131.1849408 141.9589408  50.9060000 130.5209408 143.0349408  50.0740000
 131.0869408 145.7069408  37.3250000 130.8939408 146.1889408  38.1280000
 130.7599408 146.2699408  36.6230000 122.6749408 138.7829408  40.9760000
 123.1839408 139.3299408  41.5740000 123.0549408 138.9529408  40.1140000
 133.9669408 135.5319408  35.7910000 134.1179408 134.5939408  35.6770000
 133.3829408 135.7699408  35.0710000 122.1679408 124.6769408  42.0900000
 121.6919408 125.0179408  41.3330000 121.8439408 125.1909408  42.8290000
 129.7219408 148.0699408  38.6160000 129.4219408 148.0619408  37.7080000
 129.1469408 148.6979408  39.0530000 131.7279408 140.3879408  51.2710000
 131.6209408 139.5149408  50.8940000 132.3419408 140.2629408  51.9960000
 148.0529408 145.8899408  42.2050000 148.2489408 146.7309408  42.6180000
 147.0989408 145.8779408  42.1250000 133.8599408 126.7389408  32.4700000
 133.0679408 127.2019408  32.1940000 133.5509408 126.0939408  33.1060000
 124.9999408 149.5199408  48.2440000 125.1339408 149.6689408  49.1800000
 124.6149408 150.3359408  47.9240000 130.5059408 139.8669408  36.1100000
 129.8559408 139.5139408  35.5030000 129.9949408 140.3779408  36.7380000
 133.0909408 125.1259408  34.6640000 133.6829408 125.1169408  35.4160000
 132.3979408 124.5079408  34.8970000 123.3269408 144.6049408  49.3680000
 124.2059408 144.2289408  49.3230000 123.4169408 145.4729408  48.9750000
 120.0379408 141.4779408  34.6990000 120.9309408 141.1549408  34.5830000
 119.4899408 140.8369408  34.2450000 135.7609408 145.8819408  34.7460000
 135.6409408 145.0999408  34.2060000 134.9199408 145.9989408  35.1890000
 134.2179408 140.3289408  43.1910000 134.4609408 141.2159408  42.9250000
 135.0449408 139.9189408  43.4450000 137.6079408 141.4719408  51.4500000
 137.1129408 142.1989408  51.8280000 137.2049408 140.6879408  51.8230000
 132.8429408 144.9729408  51.9030000 132.4879408 144.2539408  51.3800000
 133.3269408 145.5089408  51.2750000 124.6779408 142.4899408  46.5850000
 125.2769408 143.2359408  46.6160000 125.2109408 141.7439408  46.8610000
 125.7979408 141.3969408  36.7650000 126.4539408 141.7799408  37.3470000
 124.9819408 141.4349408  37.2640000 137.4849408 147.6719408  37.7400000
 136.6389408 147.2889408  37.9700000 137.8719408 147.0489408  37.1250000
 122.3099408 138.7869408  35.5240000 121.6629408 138.6259408  36.2120000
 123.1549408 138.6519408  35.9530000 134.3059408 148.7819408  37.3720000
 134.7559408 148.1469408  37.9280000 133.9669408 148.2639408  36.6420000
 144.3189408 144.7159408  44.1060000 144.8969408 143.9829408  43.8980000
 144.5489408 145.3919408  43.4680000 126.4959408 138.9039408  32.3800000
 125.9039408 139.5189408  31.9470000 125.9969408 138.0889408  32.4350000
 125.8519408 147.3879408  59.9390000 125.2559408 147.5509408  59.2070000
 125.3619408 146.8089408  60.5230000 136.4369408 139.0669408  51.2430000
 136.5039408 138.3559408  50.6060000 135.6939408 139.5899408  50.9420000
 127.2649408 143.0889408  33.3920000 127.5729408 143.8519408  32.9040000
 127.6459408 143.1919408  34.2640000 130.3759408 143.4779408  47.1180000
 129.6279408 143.2069408  47.6500000 130.5139408 142.7509408  46.5100000
 135.4449408 145.1009408  44.0140000 136.2459408 145.2109408  43.5020000
 135.0809408 144.2679408  43.7140000 129.1669408 125.4379408  35.7480000
 128.8509408 125.6709408  34.8750000 129.4189408 124.5179408  35.6750000
 124.2729408 140.1469408  42.5690000 123.8439408 140.9559408  42.8460000
 125.0339408 140.0699408  43.1450000 123.2469408 135.4839408  33.2100000
 123.6359408 136.1419408  32.6340000 123.7999408 135.4919408  33.9910000
 124.1789408 137.7809408  38.9290000 124.2309408 138.1619408  38.0530000
 123.5919408 137.0319408  38.8310000 131.1639408 149.3629408  44.0990000
 131.9599408 149.0219408  44.5070000 130.8289408 150.0059408  44.7250000
 131.2709408 149.4239408  30.7540000 131.1439408 149.1009408  29.8620000
 130.7259408 150.2099408  30.8040000 130.1639408 134.3359408  47.9330000
 129.7059408 133.4989408  47.8530000 130.9369408 134.2409408  47.3770000
 126.7049408 144.8669408  37.0240000 127.3139408 144.3839408  36.4660000
 126.0519408 145.2189408  36.4190000 120.7809408 137.7779408  33.0700000
 121.3749408 137.8329408  33.8190000 121.3059408 138.0689408  32.3250000
 126.9129408 146.0559408  43.0170000 126.7609408 146.9919408  43.1450000
 127.8609408 145.9539408  43.1010000 129.9689408 145.5049408  41.5150000
 130.0609408 146.2039408  42.1630000 129.5309408 145.9229408  40.7730000
 132.8559408 122.0519408  39.6080000 133.6339408 121.5559408  39.8640000
 132.6389408 122.5739408  40.3800000 130.9059408 142.2719408  31.9450000
 130.8709408 141.3879408  31.5790000 130.4339408 142.8129408  31.3120000
 120.6149408 134.7429408  32.4330000 119.9859408 135.4539408  32.5520000
 121.4659408 135.1429408  32.6100000 135.8529408 143.8829408  37.9390000
 135.9139408 143.7729408  36.9900000 136.7569408 144.0099408  38.2250000
 127.6779408 135.6369408  48.2270000 127.3809408 135.6059408  49.1360000
 128.4549408 135.0779408  48.2080000 124.3649408 142.5619408  40.9050000
 123.8259408 143.0119408  41.5560000 125.0559408 143.1889408  40.6910000
 131.6299408 143.2589408  41.2250000 131.9139408 143.2529408  40.3110000
 130.9499408 143.9319408  41.2610000 123.3079408 142.3489408  44.1740000
 123.6449408 143.1049408  43.6930000 123.8179408 142.3319408  44.9840000
 148.1769408 122.4219408  50.1510000 147.3749408 122.2089408  50.6290000
 148.4289408 123.2859408  50.4760000 139.2209408 148.9019408  39.3070000
 138.6819408 149.2899408  39.9960000 138.5979408 148.6619408  38.6210000
 120.9919408 119.9949408  55.7370000 121.7769408 120.0659408  55.1940000
 121.2419408 120.3889408  56.5730000 120.7819408 136.6869408  45.9170000
 120.1779408 136.2529408  46.5200000 120.3069408 137.4619408  45.6180000
 126.7389408 144.1779408  39.9850000 126.8389408 145.0859408  40.2700000
 126.8689408 144.2079408  39.0370000 130.4329408 121.4439408  45.7220000
 130.5989408 121.4719408  46.6650000 130.7079408 122.3039408  45.4050000
 131.3089408 139.2199408  55.3400000 132.0399408 139.3309408  54.7320000
 131.4799408 139.8519408  56.0380000 123.3309408 139.3729408  48.2010000
 122.4419408 139.5659408  48.5000000 123.8949408 139.6769408  48.9110000
 146.3379408 128.5209408  44.7070000 145.9319408 129.3879408  44.7270000
 145.5999408 127.9109408  44.7000000 123.1059408 141.9459408  38.1800000
 123.4189408 142.7029408  38.6760000 122.1519408 142.0229408  38.2010000
 135.4369408 143.2539408  50.0090000 136.0059408 143.1119408  49.2530000
 135.0009408 142.4129408  50.1430000 127.0619408 141.4499408  39.2770000
 127.2629408 142.2119408  39.8210000 126.5489408 140.8769408  39.8470000
 132.4839408 146.0199408  59.2340000 132.1589408 145.9759408  60.1330000
 131.7009408 146.1619408  58.7020000 132.0659408 148.8869408  39.7040000
 131.2279408 148.5389408  39.3980000 132.5209408 149.1529408  38.9050000
 131.2699408 146.0949408  46.5260000 131.8939408 146.0249408  45.8040000
 131.2699408 145.2259408  46.9290000 130.8659408 138.4719408  32.7640000
 130.6719408 139.4039408  32.8690000 131.5619408 138.2989408  33.3990000
 133.6439408 120.4429408  31.8470000 132.8629408 120.2199408  31.3410000
 133.6489408 121.3999408  31.8730000 123.1739408 120.5829408  34.5740000
 124.1289408 120.6499408  34.5680000 122.8779408 121.4079408  34.9580000
 129.4209408 141.4549408  37.9740000 128.8169408 141.4819408  38.7160000
 130.2109408 141.8929408  38.2920000 148.8549408 143.9129408  40.4620000
 148.1329408 143.2899408  40.3720000 148.5459408 144.5469408  41.1090000
 129.8059408 135.8759408  51.7940000 128.8959408 136.1509408  51.9020000
 129.7489408 134.9669408  51.5000000 127.9939408 141.3219408  44.6600000
 128.8919408 141.3319408  44.9910000 127.9779408 142.0019408  43.9870000
 145.4639408 145.1709408  38.5830000 144.5769408 145.4189408  38.3240000
 145.9009408 144.9499408  37.7600000 144.4759408 140.8279408  49.0240000
 145.3199408 141.0919408  48.6570000 144.7019408 140.2359408  49.7420000
 128.2409408 139.7249408  55.2630000 128.0479408 139.1849408  56.0300000
 129.1959408 139.7239408  55.2030000 132.9509408 121.3049408  42.5350000
 133.5739408 120.6049408  42.7320000 132.1069408 120.9639408  42.8300000
 149.8429408 146.8959408  38.9490000 149.2369408 146.1979408  38.6960000
 150.4319408 146.4839408  39.5810000 133.2739408 146.0209408  35.5640000
 133.0779408 145.8549408  36.4860000 132.5129408 145.6839408  35.0920000
 133.9679408 143.1959408  42.7510000 133.0609408 143.1179408  42.4530000
 134.4749408 143.3119408  41.9480000 127.9659408 143.2009408  54.6000000
 128.6309408 142.7009408  54.1270000 127.9549408 144.0549408  54.1660000
 148.8189408 148.9629408  49.5480000 149.3499408 148.7979408  50.3270000
 147.9169408 148.8389408  49.8420000 127.1999408 122.1849408  49.7970000
 127.7519408 121.4189408  49.6400000 126.4489408 121.8439408  50.2840000
 136.6659408 132.2829408  31.1970000 136.1439408 133.0379408  30.9240000
 136.2319408 131.9649408  31.9890000 131.4439408 135.8639408  53.9440000
 132.0879408 136.3889408  53.4680000 130.7859408 135.6379408  53.2870000
 134.5009408 132.8519408  35.8720000 134.3729408 132.6739408  36.8040000
 133.6179408 132.8409408  35.5020000 130.8959408 139.7499408  39.9370000
 130.1039408 139.8069408  40.4710000 131.6099408 139.9329408  40.5480000
 139.0259408 134.6979408  35.6060000 139.1789408 135.5409408  36.0320000
 138.8219408 134.0999408  36.3250000 126.7689408 148.4729408  44.2330000
 127.3599408 149.2059408  44.4070000 125.9639408 148.6979408  44.6990000
 129.7699408 142.6009408  56.6800000 129.2829408 142.6389408  55.8560000
 129.7329408 143.4939408  57.0220000 147.3529408 120.3099408  42.8330000
 147.5099408 119.6729408  43.5300000 147.9369408 121.0399408  43.0390000
 132.1129408 138.3489408  37.7370000 131.7449408 138.5769408  38.5910000
 131.5649408 138.8179408  37.1070000 144.6629408 139.5749408  42.4850000
 144.9049408 138.8659408  43.0800000 144.1909408 139.1409408  41.7740000
 121.4539408 149.7109408  45.8930000 121.4329408 150.6619408  46.0040000
 122.2849408 149.5399408  45.4500000 126.8329408 140.5419408  47.8900000
 127.4509408 139.8449408  47.6710000 126.2749408 140.1639408  48.5700000
 145.2199408 134.8659408  31.3530000 145.3179408 134.0859408  30.8060000
 144.4369408 135.3009408  31.0120000 138.8679408 147.6099408  33.3490000
 139.7269408 147.3279408  33.6620000 138.2529408 147.2769408  34.0020000
 128.3579408 124.1779408  31.8600000 128.4489408 124.8209408  32.5630000
 127.5369408 123.7239408  32.0540000 131.2019408 148.7629408  33.4690000
 131.2119408 149.5939408  33.9450000 131.6049408 148.9659408  32.6240000
 126.1329408 143.5059408  50.1000000 126.3269408 143.2889408  49.1880000
 126.9599408 143.8419408  50.4480000 130.2109408 148.4339408  41.9620000
 131.0079408 148.2959408  41.4500000 130.5229408 148.6039408  42.8510000
 137.3879408 142.3639408  57.4260000 137.6389408 142.8729408  58.1970000
 138.1209408 142.4709408  56.8190000 121.6809408 148.4499408  37.5820000
 122.3499408 147.9409408  37.1260000 120.8959408 147.9039408  37.5440000
 145.9239408 142.7609408  43.2040000 145.7279408 142.7439408  42.2670000
 146.0819408 141.8459408  43.4340000 139.3099408 146.6769408  44.0320000
 139.6109408 146.8749408  44.9190000 139.3619408 145.7229408  43.9680000
 123.3539408 144.7089408  39.0660000 123.7559408 145.5449408  39.3010000
 122.5179408 144.9489408  38.6650000 121.4129408 146.7549408  30.3960000
 122.1889408 147.0679408  29.9310000 121.2349408 145.8959408  30.0140000
 149.6089408 147.8679408  45.3230000 150.1049408 147.1339408  44.9590000
 150.2649408 148.5469408  45.4810000 142.3659408 134.6299408  38.6880000
 141.7399408 134.6659408  39.4110000 143.1379408 135.0919408  39.0160000
 121.5119408 139.0599408  43.6060000 120.8219408 139.4449408  43.0660000
 122.0049408 138.5029408  43.0030000 123.9449408 146.8669408  48.1460000
 123.7629408 146.8199408  47.2080000 124.4529408 147.6719408  48.2510000
 133.2799408 142.0519408  45.6120000 132.3279408 141.9589408  45.6370000
 133.5199408 141.8259408  44.7140000 132.9559408 141.3659408  36.3640000
 133.4859408 141.8059408  35.6990000 132.4029408 140.7609408  35.8690000
 123.4409408 126.1809408  31.9050000 124.0029408 126.8479408  31.5100000
 123.9759408 125.7989408  32.6010000 137.0119408 143.5979408  30.0990000
 137.4669408 144.3679408  30.4400000 136.1409408 143.9179408  29.8630000
 127.1949408 142.4749408  58.1130000 126.6079408 142.3649408  57.3650000
 128.0739408 142.3999408  57.7400000 138.2589408 132.5979408  37.4360000
 137.7069408 131.9699408  36.9700000 137.6589408 133.0499408  38.0290000
 120.1369408 123.5589408  35.8370000 119.9919408 122.6449408  35.5950000
 120.0729408 123.5669408  36.7920000 135.3399408 140.8529408  58.1340000
 134.7079408 141.5289408  57.8920000 136.1799408 141.1839408  57.8140000
 139.9039408 120.2909408  56.3150000 139.3069408 120.0529408  57.0240000
 140.2959408 121.1169408  56.5980000 146.3759408 143.1479408  52.1470000
 145.9069408 143.8409408  51.6830000 147.2419408 143.1299408  51.7400000
 128.6959408 124.9359408  56.2190000 128.5659408 124.8349408  57.1620000
 127.9669408 125.4869408  55.9330000 125.0549408 120.9999408  57.6170000
 125.2369408 121.8089408  57.1400000 124.9239408 120.3429408  56.9330000
 132.6159408 142.0489408  54.5270000 132.7129408 141.7699408  55.4380000
 133.1399408 141.4229408  54.0270000 124.7479408 146.4299408  32.0810000
 124.8309408 145.7089408  32.7050000 123.9279408 146.8609408  32.3190000
 129.2759408 146.4629408  44.7030000 129.7309408 146.2569408  45.5190000
 129.1089408 147.4049408  44.7520000 143.3719408 149.3539408  46.9710000
 143.3079408 148.3989408  46.9860000 142.9949408 149.6059408  46.1290000
 136.2559408 143.4489408  52.4580000 135.9049408 143.5529408  51.5740000
 135.4959408 143.5559408  53.0320000 126.9949408 135.9949408  50.7340000
 126.4209408 135.7369408  51.4560000 126.9939408 136.9519408  50.7580000
 136.4109408 147.9309408  46.0400000 136.7929408 148.4529408  46.7440000
 136.9819408 148.0879408  45.2870000 134.1419408 144.1589408  54.0840000
 133.6309408 143.3779408  54.2940000 133.5819408 144.6599408  53.4910000
 133.5379408 136.9969408  52.3460000 134.1009408 136.3869408  52.8230000
 133.4289408 136.5979408  51.4830000 133.4829408 139.4799408  53.5240000
 133.6019408 138.6709408  53.0260000 134.1959408 139.4769408  54.1620000
 125.5179408 140.8639408  30.6340000 124.6129408 140.9029408  30.3240000
 125.8689408 141.7369408  30.4600000 123.9199408 143.7329408  57.9040000
 123.7749408 142.7969408  57.7640000 124.6069408 143.7729408  58.5690000
 143.3409408 145.3679408  56.2690000 143.8739408 145.7849408  55.5910000
 142.6439408 145.9989408  56.4470000 141.0999408 147.1969408  56.2780000
 140.7519408 147.3389408  55.3980000 141.3499408 148.0699408  56.5810000
 134.6979408 145.7839408  49.6430000 134.8279408 145.7939408  48.6940000
 134.6369408 144.8559408  49.8670000 131.6579408 149.4879408  55.1230000
 131.5199408 150.2759408  55.6490000 132.5939408 149.3049408  55.2060000
 125.6269408 145.5319408  52.0670000 126.1349408 145.9269408  51.3580000
 125.2669408 144.7309408  51.6870000 128.4599408 122.5539408  54.9290000
 128.0919408 121.8119408  55.4080000 128.4689408 123.2689408  55.5650000
 123.5699408 140.9729408  57.9310000 122.6959408 140.8599408  57.5580000
 124.1639408 140.6609408  57.2500000 144.5209408 137.0009408  52.3890000
 145.1209408 136.3069408  52.6620000 143.6929408 136.7869408  52.8180000
 131.6979408 140.0789408  59.7730000 130.8099408 139.8989408  59.4640000
 132.0089408 139.2409408  60.1130000 130.6369408 141.0749408  45.7480000
 131.0509408 140.3259408  46.1760000 130.8889408 140.9959408  44.8280000
 127.8009408 137.6069408  56.9660000 127.9509408 138.0929408  57.7770000
 128.6709408 137.3129408  56.6970000 134.6939408 147.6009408  59.4540000
 133.7959408 147.3609408  59.6810000 134.6029408 148.1929408  58.7070000
 134.6019408 148.8039408  53.5100000 135.1489408 148.3629408  54.1610000
 134.6489408 149.7299408  53.7450000 128.0119408 145.6129408  59.1090000
 127.3469408 145.9979408  59.6800000 127.5689408 145.4959408  58.2690000
 137.2359408 145.8399408  54.2300000 137.9919408 145.7569408  53.6490000
 136.6439408 145.1399408  53.9550000 136.3829408 145.0279408  46.5230000
 135.9809408 144.9789408  45.6560000 136.6939408 145.9299408  46.5930000
 119.8979408 145.6919408  52.9550000 119.7849408 144.8959408  53.4740000
 120.8379408 145.7319408  52.7780000 128.7329408 145.2859408  32.7840000
 129.4529408 145.3559408  32.1580000 128.2929408 146.1349408  32.7390000
 146.7709408 123.6649408  52.7270000 146.7729408 122.8369408  53.2070000
 147.3549408 124.2339408  53.2270000 125.4859408 137.0279408  55.4590000
 125.3769408 136.1209408  55.7470000 126.3439408 137.2849408  55.7970000
 129.9189408 123.5539408  51.8240000 129.1149408 123.4609408  52.3350000
 130.5089408 122.8899408  52.1800000 131.3379408 148.9519408  57.8980000
 130.3879408 148.9459408  57.7800000 131.6909408 148.7969408  57.0220000
 128.4839408 132.6569408  42.7750000 128.7579408 133.2109408  42.0450000
 129.2489408 132.1129408  42.9640000 124.8689408 142.0059408  34.4930000
 125.4839408 142.3369408  33.8380000 125.3879408 141.9349408  35.2950000
 121.1839408 143.8679408  32.2820000 121.7039408 143.3719408  31.6500000
 121.6219408 143.7219408  33.1200000 121.2759408 140.9209408  52.3260000
 121.5259408 140.2529408  51.6880000 121.9619408 141.5849408  52.2600000
 127.4129408 146.2019408  50.0570000 127.4249408 146.6489408  49.2110000
 128.2419408 146.4469408  50.4690000 130.8449408 122.1909408  58.1290000
 129.9649408 121.9919408  57.8090000 130.7209408 122.4099408  59.0520000
 132.1609408 141.0939408  57.1720000 131.3539408 141.5889408  57.0280000
 132.4389408 141.3399408  58.0540000 141.6459408 145.8579408  49.2480000
 141.8839408 145.4889408  48.3980000 141.1379408 145.1669408  49.6750000
 121.9099408 146.0429408  56.4380000 121.0299408 146.3809408  56.2760000
 121.8099408 145.4669408  57.1960000 146.5009408 143.4099408  33.8900000
 147.2679408 143.2959408  33.3290000 146.1529408 144.2679408  33.6490000
 132.1069408 148.3369408  52.1520000 132.8629408 148.3479408  52.7390000
 131.9139408 149.2609408  51.9920000 126.9049408 149.6589408  54.4020000
 127.4049408 149.1249408  55.0190000 127.5369408 149.8999408  53.7250000
 135.8789408 122.1039408  51.6990000 135.5149408 121.9559408  52.5720000
 136.7829408 121.7959408  51.7610000 128.8949408 141.6709408  49.8570000
 128.2309408 141.5909408  49.1720000 128.9859408 140.7849408  50.2080000
 139.3409408 139.3989408  50.3370000 139.0289408 139.1119408  49.4790000
 138.5439408 139.5879408  50.8320000 134.5349408 123.3569408  58.7370000
 134.1719408 122.4879408  58.5610000 135.0539408 123.5609408  57.9590000
 137.1019408 135.7249408  55.9070000 137.7749408 136.4049408  55.8650000
 136.2939408 136.1989408  56.1020000 133.0649408 121.5539408  50.0000000
 133.9649408 121.6039408  50.3230000 132.9399408 120.6309408  49.7800000
 128.2529408 121.2669408  58.1430000 127.5959408 121.4079408  58.8250000
 128.1889408 120.3329408  57.9390000 130.1359408 142.0139408  53.1660000
 130.2959408 142.4989408  52.3560000 130.9959408 141.9489408  53.5810000
 138.4869408 128.0279408  31.6070000 139.1999408 128.3819408  32.1380000
 138.0509408 128.7999408  31.2450000 135.1319408 137.2609408  56.3960000
 135.2409408 137.6919408  57.2440000 134.5449408 136.5269408  56.5740000
 127.2789408 146.4109408  56.2950000 126.3539408 146.2849408  56.0820000
 127.7199408 146.4259408  55.4460000 134.4529408 140.9099408  33.7780000
 134.3679408 140.7669408  32.8350000 135.0229408 140.2019408  34.0770000
 127.1399408 147.5469408  47.6840000 126.8289408 147.2759408  46.8200000
 126.5409408 148.2459408  47.9460000 145.0939408 123.0129408  55.4040000
 144.7599408 122.6939408  54.5660000 145.6369408 122.2969408  55.7340000
 135.7979408 148.7229408  33.2530000 135.6619408 147.7969408  33.0530000
 135.1299408 149.1799408  32.7420000 129.0859408 121.1759408  31.1750000
 128.4019408 120.5059408  31.1510000 128.6729408 121.9539408  30.8020000
 128.0329408 149.1679408  40.5370000 128.6119408 148.8459408  41.2270000
 127.5109408 149.8489408  40.9610000 132.8329408 136.8609408  43.8650000
 132.4649408 135.9809408  43.9370000 132.1939408 137.3459408  43.3420000
 128.4229408 148.5869408  57.7970000 128.0969408 148.0029408  57.1120000
 128.0209408 148.2599408  58.6020000 133.1219408 135.2349408  56.3590000
 132.9999408 134.2859408  56.3360000 133.2029408 135.4879408  55.4390000
 125.5019408 120.1759408  50.8970000 125.1519408 120.8029408  51.5300000
 125.3639408 119.3209408  51.3060000 134.6709408 127.7959408  35.3550000
 135.3629408 127.6749408  34.7050000 134.3999408 126.9069408  35.5840000
 132.2429408 126.3459408  37.8770000 133.0639408 125.9189408  37.6340000
 131.5769408 125.9019408  37.3520000 130.7739408 126.2109408  59.9660000
 131.1209408 126.8889408  60.5450000 130.1539408 126.6719408  59.4000000
 144.9609408 135.1169408  36.4150000 144.0719408 135.3439408  36.1410000
 145.4919408 135.8699408  36.1570000 139.3769408 127.5459408  42.7920000
 139.5639408 127.9789408  41.9590000 138.9799408 128.2279408  43.3340000
 149.9389408 132.9329408  50.1570000 149.2409408 133.5489408  49.9330000
 149.5489408 132.0699408  50.0180000 143.4369408 128.0999408  44.6000000
 143.0629408 128.4679408  43.7990000 143.0709408 127.2169408  44.6520000
 147.4789408 123.9939408  40.6530000 147.3369408 124.2939408  39.7560000
 147.7139408 123.0699408  40.5640000 143.8419408 127.9109408  41.1330000
 143.2649408 128.4849408  40.6300000 144.5029408 127.6239408  40.5030000
 144.1399408 121.3499408  40.9420000 143.2239408 121.4689408  41.1920000
 144.1099408 120.7419408  40.2040000 142.8249408 141.8459408  59.9020000
 143.1099408 141.1609408  60.5080000 143.3979408 141.7459408  59.1420000
 120.0609408 126.7279408  47.5830000 120.7789408 127.3319408  47.7720000
 119.7179408 127.0209408  46.7390000 139.3879408 132.0239408  31.7080000
 138.4449408 132.1189408  31.5730000 139.5609408 131.0969408  31.5410000
 138.6229408 124.8899408  42.5080000 139.1929408 124.4829408  41.8550000
 138.9969408 125.7609408  42.6440000 148.2209408 143.3229408  44.8680000
 147.5639408 143.4529408  44.1850000 149.0359408 143.1649408  44.3900000
 147.7609408 122.7849408  33.9490000 148.2159408 122.0179408  33.6010000
 147.0409408 122.9349408  33.3370000 135.8699408 127.0169408  30.6600000
 135.2029408 126.8519408  31.3270000 136.4569408 127.6569408  31.0610000
 139.5339408 137.2399408  56.6460000 140.2919408 136.8729408  56.1910000
 139.5379408 136.8119408  57.5020000 145.9399408 125.4359408  44.7680000
 146.1589408 125.8389408  43.9280000 145.7629408 124.5199408  44.5560000
 145.4509408 126.9699408  35.4990000 144.8859408 126.2069408  35.3780000
 145.7639408 127.1789408  34.6180000 120.4629408 142.8909408  43.2580000
 120.2129408 141.9829408  43.0880000 121.3599408 142.8359408  43.5870000
 134.7979408 131.2589408  50.4950000 134.1209408 131.7319408  50.0110000
 135.3779408 131.9449408  50.8280000 138.4659408 143.8039408  39.1880000
 138.8379408 144.6159408  38.8460000 138.9149408 143.1109408  38.7040000
 136.7079408 127.0059408  33.8860000 137.1969408 127.5149408  33.2390000
 136.7849408 126.0999408  33.5860000 125.6159408 123.9159408  47.9620000
 126.1299408 123.4149408  48.5940000 125.1099408 123.2559408  47.4870000
 145.2969408 125.6169408  49.7390000 146.1719408 125.2819408  49.5430000
 144.9219408 125.8239408  48.8830000 130.5079408 127.1349408  50.9140000
 131.3479408 126.7929408  50.6060000 130.6289408 127.2549408  51.8560000
 125.4309408 128.9249408  43.3460000 124.5449408 128.8439408  43.6980000
 125.4069408 129.7229408  42.8170000 149.5329408 120.6999408  33.3760000
 150.1959408 120.7629408  32.6890000 149.1429408 119.8339408  33.2540000
 139.1209408 131.3209408  43.8360000 138.7309408 131.3989408  42.9650000
 138.7629408 132.0599408  44.3270000 143.4509408 136.6139408  47.9200000
 143.0099408 137.2459408  47.3520000 142.8429408 136.4799408  48.6470000
 121.2429408 145.3819408  41.0890000 121.8839408 144.7989408  40.6820000
 120.4409408 144.8619408  41.1370000 120.5589408 123.4369408  32.1060000
 120.9039408 123.9419408  31.3700000 119.6199408 123.3699408  31.9320000
 145.4529408 143.0009408  36.3470000 146.1639408 142.5919408  36.8410000
 145.8259408 143.1649408  35.4810000 139.8289408 132.1619408  34.8400000
 140.2879408 132.3219408  35.6640000 139.5549408 133.0299408  34.5450000
 138.0169408 127.0069408  57.2190000 137.3259408 126.5609408  57.7080000
 138.0999408 126.5049408  56.4080000 145.5609408 131.1319408  45.4750000
 145.1189408 130.5969408  46.1340000 144.8589408 131.6419408  45.0700000
 121.6959408 134.5629408  35.6540000 121.0739408 134.5129408  34.9270000
 121.7619408 133.6639408  35.9750000 146.7429408 123.6139408  47.8620000
 146.4659408 124.0829408  47.0750000 146.0469408 122.9769408  48.0200000
 141.6259408 139.4869408  31.2030000 142.4039408 139.0829408  31.5860000
 141.3859408 140.1789408  31.8190000 139.8959408 127.7829408  59.2340000
 139.4559408 127.5179408  58.4260000 139.2739408 127.5689408  59.9280000
 149.2179408 143.7659408  35.8380000 149.3659408 144.3189408  35.0710000
 149.4309408 142.8809408  35.5410000 141.2669408 120.7559408  38.5830000
 141.3999408 121.0999408  39.4660000 140.5919408 120.0849408  38.6870000
 144.1839408 124.4299408  59.2750000 143.9199408 125.0219408  58.5710000
 143.4349408 124.4179408  59.8720000 147.0209408 120.6149408  53.3560000
 146.1119408 120.3729408  53.1770000 147.4589408 119.7839408  53.5400000
 147.0549408 140.3509408  43.5330000 146.2059408 140.0659408  43.1960000
 147.4329408 139.5649408  43.9270000 143.3629408 125.0449408  41.8150000
 143.7649408 125.8809408  41.5770000 144.1039408 124.4649408  41.9930000
 144.9759408 121.0289408  50.1130000 144.6729408 121.3969408  49.2830000
 144.4759408 121.4979408  50.7810000 142.5319408 143.9129408  46.2690000
 143.3199408 143.8259408  46.8050000 142.8589408 144.0669408  45.3830000
 146.3219408 127.4929408  53.9420000 146.3019408 126.7529408  54.5480000
 147.1049408 127.9849408  54.1900000 120.1739408 131.8329408  41.6060000
 120.4409408 131.6049408  42.4960000 120.8999408 132.3529408  41.2630000
 145.7369408 139.1459408  38.1800000 144.8499408 139.1279408  38.5390000
 146.1869408 138.4239408  38.6170000 136.6539408 129.5689408  37.1000000
 136.2859408 129.1019408  36.3490000 137.5579408 129.2609408  37.1550000
 138.3429408 145.7469408  36.0430000 138.8659408 144.9999408  35.7510000
 137.5969408 145.7659408  35.4440000 124.7929408 145.8129408  35.2480000
 124.3529408 146.6369408  35.4600000 124.0799408 145.1949408  35.0880000
 143.2419408 143.1659408  40.4920000 142.9709408 143.7249408  39.7630000
 142.5509408 142.5069408  40.5570000 145.7379408 146.5139408  46.0000000
 145.5399408 145.6189408  45.7260000 144.8859408 146.8929408  46.2160000
 120.0309408 126.3349408  37.2890000 119.4529408 125.8939408  36.6650000
 120.7089408 126.7369408  36.7450000 125.4109408 121.6389408  44.1010000
 126.3529408 121.5459408  43.9540000 125.1199408 122.2449408  43.4200000
 140.9789408 131.3509408  58.1040000 141.4849408 130.7389408  58.6380000
 141.4719408 131.4199408  57.2860000 132.0409408 123.7889408  30.3090000
 131.4489408 124.5119408  30.1020000 132.7159408 123.8299408  29.6310000
 144.4599408 122.0869408  47.5660000 144.6979408 122.1839408  46.6440000
 143.9199408 121.2969408  47.5930000 128.5499408 124.3989408  49.4280000
 129.1569408 124.0959408  50.1040000 127.8149408 123.7869408  49.4750000
 147.6739408 127.2299408  58.4930000 148.1929408 128.0039408  58.2730000
 147.5139408 126.7999408  57.6530000 141.2339408 121.7299408  41.0500000
 141.0569408 121.7479408  41.9900000 141.0979408 122.6329408  40.7630000
 142.1169408 126.2239408  46.4610000 141.5759408 126.8179408  46.9810000
 141.6809408 126.1839408  45.6100000 137.0459408 129.7769408  60.0950000
 136.9329408 130.7139408  60.2500000 137.3599408 129.7189408  59.1920000
 147.9949408 121.5439408  39.2960000 147.6689408 120.7739408  39.7610000
 147.5859408 121.4939408  38.4320000 124.1849408 139.2609408  45.5620000
 123.2749408 139.4589408  45.3410000 124.2369408 139.3929408  46.5080000
 141.5719408 136.0879408  49.4610000 141.2589408 136.5549408  50.2350000
 142.0279408 135.3219408  49.8100000 144.5889408 132.8039408  48.0590000
 145.3309408 132.2919408  47.7360000 144.9889408 133.5189408  48.5550000
 122.6959408 124.0899408  51.8710000 122.3059408 123.5869408  51.1560000
 122.9999408 124.8979408  51.4560000 149.8669408 142.4849408  53.7190000
 150.5199408 142.0109408  53.2050000 149.1229408 142.5889408  53.1250000
 142.9719408 149.7709408  36.6800000 142.3179408 150.1079408  37.2920000
 143.6439408 149.3789408  37.2390000 132.1399408 127.4559408  42.2220000
 133.0799408 127.4309408  42.0430000 131.9669408 126.6499408  42.7080000
 142.2569408 132.3619408  41.4830000 141.7519408 133.1539408  41.2990000
 142.2079408 131.8529408  40.6740000 147.9939408 128.9349408  48.7130000
 148.8849408 128.7869408  49.0320000 147.4419408 128.4079408  49.2910000
 145.9349408 141.0989408  58.9360000 145.4299408 141.0179408  58.1280000
 146.4369408 141.9069408  58.8260000 122.6369408 128.9269408  38.6340000
 123.0599408 129.1289408  39.4690000 121.7709408 129.3279408  38.7010000
 121.9669408 128.2519408  48.4270000 122.8179408 128.6559408  48.5950000
 121.4089408 128.5619408  49.1400000 147.5039408 125.9579408  42.6760000
 147.6349408 125.1329408  42.2080000 147.4329408 126.6169408  41.9850000
 126.0659408 123.5049408  33.3350000 125.7129408 124.3689408  33.5490000
 125.3759408 123.0859408  32.8200000 140.1629408 123.2489408  37.1740000
 140.7889408 122.6829408  37.6270000 139.4289408 123.3299408  37.7820000
 136.8479408 149.6619408  40.6200000 136.3209408 149.0759408  41.1630000
 136.2789408 149.8849408  39.8840000 125.8869408 130.2809408  35.3640000
 125.6359408 130.8369408  36.1020000 125.8729408 130.8659408  34.6070000
 142.0509408 147.8479408  51.3780000 142.2919408 147.3129408  50.6220000
 142.4079408 148.7149408  51.1820000 146.0049408 148.4509408  50.5770000
 145.3879408 147.8689408  50.1320000 145.6789408 149.3319408  50.3920000
 135.9519408 135.9449408  30.6750000 135.0699408 135.6069408  30.8280000
 136.3909408 135.2529408  30.1800000 142.1649408 127.7679408  38.6350000
 143.0789408 127.4839408  38.6030000 142.1279408 128.5239408  38.0490000
 144.3869408 130.8979408  37.2380000 144.6949408 131.3449408  38.0260000
 145.0989408 131.0059408  36.6070000 140.4669408 147.5979408  46.5020000
 140.0149408 148.4079408  46.7400000 139.9129408 146.9009408  46.8520000
 137.1799408 144.4859408  41.5940000 137.1339408 144.0919408  40.7230000
 137.8769408 145.1389408  41.5260000 147.1109408 127.9229408  40.7590000
 146.6699408 128.6599408  41.1820000 147.2859408 128.2279408  39.8680000
 144.4309408 128.2329408  30.1660000 144.9999408 128.8329408  29.6840000
 144.9499408 127.9689408  30.9260000 147.6649408 137.8339408  50.4340000
 147.0099408 137.9209408  51.1270000 147.7929408 138.7259408  50.1110000
 140.4459408 125.7249408  35.9510000 140.6899408 124.9389408  36.4390000
 141.2809408 126.0999408  35.6680000 124.0989408 137.2339408  50.9040000
 123.5579408 137.6299408  50.2210000 124.7849408 137.8809408  51.0720000
 143.0409408 145.6989408  37.7480000 142.2169408 146.1149408  37.4950000
 143.0589408 144.8799408  37.2530000 135.0709408 123.1099408  41.9730000
 135.9309408 122.7019408  41.8700000 134.5769408 122.4959408  42.5170000
 121.2549408 126.8109408  44.1630000 120.3669408 126.7379408  44.5100000
 121.5479408 127.6809408  44.4330000 121.2039408 138.3319408  38.1590000
 121.7869408 138.4599408  38.9080000 120.4139408 137.9419408  38.5330000
 130.8509408 138.0429408  50.5640000 131.5169408 137.8769408  49.8970000
 130.6929408 137.1879408  50.9640000 145.3289408 133.5029408  41.5810000
 145.0329408 134.2309408  42.1270000 146.1189408 133.1829408  42.0170000
 147.1119408 147.8559408  44.3000000 146.6299408 147.3489408  44.9530000
 148.0099408 147.8809408  44.6300000 144.7879408 122.1149408  35.8990000
 144.1839408 121.3719408  35.9120000 145.6579408 121.7159408  35.9040000
 139.4179408 135.1679408  46.0930000 140.2329408 134.6729408  46.0060000
 139.6999408 136.0539408  46.3210000 147.7659408 133.5989408  33.8470000
 147.7389408 133.8419408  34.7720000 147.9009408 134.4269408  33.3850000
 125.1689408 134.5189408  46.3780000 125.8409408 134.4369408  47.0540000
 124.4199408 134.9079408  46.8290000 142.8469408 134.3839408  59.2860000
 143.0729408 135.2939408  59.4810000 142.3399408 134.4319408  58.4760000
 144.5049408 123.7859408  38.3370000 144.6659408 123.1259408  37.6630000
 145.3689408 123.9629408  38.7110000 147.8919408 135.9599408  31.8140000
 147.0629408 135.4949408  31.6950000 148.2699408 136.0039408  30.9360000
 141.4209408 125.9589408  43.7260000 140.7449408 126.4539408  43.2630000
 142.0389408 125.6999408  43.0420000 124.4059408 130.8699408  31.0480000
 123.6999408 131.4429408  31.3470000 125.1239408 131.0339408  31.6600000
 137.9489408 137.1749408  41.2960000 137.9059408 136.2389408  41.0990000
 138.8179408 137.2979408  41.6800000 145.4809408 131.9639408  39.4060000
 145.1199408 132.5119408  40.1030000 146.2799408 131.5939408  39.7810000
 147.2379408 124.9699408  38.0610000 147.3909408 125.8909408  38.2740000
 147.5609408 124.8749408  37.1650000 144.1389408 128.9709408  54.3760000
 143.4629408 128.4299408  53.9690000 144.9209408 128.4189408  54.3760000
 136.7859408 138.4209408  31.6810000 136.7219408 137.5299408  31.3370000
 137.4129408 138.8559408  31.1040000 142.8489408 133.5719408  49.9600000
 143.5609408 133.2709408  49.3950000 142.1069408 133.0129408  49.7290000
 143.2589408 120.4689408  44.2250000 143.7039408 119.7619408  43.7580000
 143.9489408 121.1049408  44.4120000 128.5139408 138.9249408  34.6940000
 128.4449408 137.9949408  34.9100000 127.8739408 139.0569408  33.9950000
 120.9149408 132.1979408  33.5130000 120.7669408 132.8599408  32.8380000
 120.2449408 131.5339408  33.3490000 136.2619408 125.6629408  41.8050000
 137.1559408 125.3529408  41.9450000 135.7269408 124.8699408  41.8260000
 145.2609408 122.5219408  45.1500000 146.1599408 122.1979408  45.2140000
 145.1129408 122.6349408  44.2110000 146.0369408 129.7699408  42.4210000
 146.3529408 129.1019408  43.0300000 145.0999408 129.8379408  42.6050000
 143.0209408 128.4339408  33.5050000 143.2149408 129.3699408  33.4500000
 143.4379408 128.1499408  34.3190000 138.3969408 121.7669408  34.5070000
 138.1719408 121.0319408  35.0770000 139.3529408 121.8069408  34.5340000
 147.9889408 129.2129408  55.4190000 148.5799408 129.2639408  56.1700000
 147.4759408 130.0199408  55.4620000 139.9099408 128.3669408  40.0660000
 139.9099408 129.2509408  39.6990000 140.6139408 127.9149408  39.6030000
 142.6919408 131.3699408  56.1520000 142.7639408 130.5559408  55.6530000
 143.5839408 131.5479408  56.4510000 142.3429408 137.8229408  43.7280000
 142.4789408 138.5569408  44.3260000 141.4959408 137.9999408  43.3180000
 138.5539408 138.9259408  54.6820000 138.7939408 138.2999408  55.3660000
 139.3529408 139.4279408  54.5250000 120.9789408 131.7839408  36.4660000
 120.8059408 131.5689408  35.5490000 120.8379408 130.9619408  36.9360000
 138.5449408 126.2349408  38.9460000 138.6869408 126.3049408  38.0020000
 138.8589408 127.0669408  39.2990000 137.5829408 122.1169408  41.6990000
 137.5359408 121.9249408  42.6360000 137.4419408 121.2719408  41.2740000
 143.0879408 126.0449408  32.2860000 143.1179408 126.9629408  32.5550000
 142.5769408 126.0479408  31.4770000 139.4299408 149.0179408  30.8690000
 140.3869408 149.0099408  30.8630000 139.1899408 148.4979408  31.6360000
 143.0929408 124.5809408  56.6170000 143.7929408 124.1529408  56.1250000
 142.4559408 124.8409408  55.9520000 149.4029408 141.3029408  46.8030000
 149.1189408 142.1149408  46.3830000 150.2919408 141.4879408  47.1050000
 127.9229408 120.9289408  37.0610000 128.3859408 121.4039408  37.7510000
 127.6119408 121.6119408  36.4670000 146.0629408 126.2019408  32.8730000
 146.7759408 126.4759408  32.2960000 145.4759408 125.7009408  32.3070000
 145.4119408 140.8149408  31.5320000 145.4999408 140.9999408  30.5970000
 146.2239408 140.3649408  31.7650000 148.3659408 125.4669408  49.3010000
 148.8039408 125.9929408  48.6320000 148.0599408 124.6899408  48.8330000
 133.7059408 120.8079408  58.7940000 132.8089408 120.6749408  59.0990000
 134.2449408 120.6919408  59.5770000 140.9419408 124.3839408  47.7550000
 140.5819408 123.9059408  47.0080000 141.5239408 125.0359408  47.3640000
 139.5519408 133.4549408  59.3200000 139.6209408 132.9329408  60.1200000
 139.9389408 132.9039408  58.6400000 149.4049408 129.7769408  31.2160000
 149.7829408 129.6169408  30.3520000 148.8879408 128.9919408  31.4010000
 143.8139408 136.7889408  59.7140000 143.7769408 137.3819408  60.4640000
 144.6549408 136.9789408  59.2980000 122.6029408 136.3849408  57.6050000
 122.3689408 136.0419408  56.7430000 123.5349408 136.1849408  57.6980000
 141.4199408 133.2069408  54.2540000 141.6209408 132.3409408  54.6100000
 141.2789408 133.0559408  53.3200000 144.3839408 136.4509408  56.5200000
 144.4989408 137.3369408  56.1780000 144.0379408 136.5779408  57.4040000
 149.1759408 130.3779408  52.4850000 148.2839408 130.5879408  52.2080000
 149.0939408 130.1619408  53.4140000 147.5159408 131.6489408  48.8270000
 147.5849408 130.6959408  48.7670000 147.6049408 131.8379408  49.7610000
 148.1189408 133.0759408  53.9840000 148.7619408 132.6759408  54.5710000
 147.4529408 133.4369408  54.5690000 120.9759408 133.9229408  56.7960000
 121.2779408 134.0099408  57.7000000 121.7439408 133.6149408  56.3150000
 144.1129408 121.7349408  58.1150000 144.7809408 121.4299408  57.5010000
 144.4059408 122.6089408  58.3730000 141.7639408 133.3609408  32.3840000
 141.7739408 133.7069408  31.4920000 140.9559408 132.8499408  32.4340000
 120.6829408 124.4809408  56.5800000 120.8219408 124.3349408  55.6450000
 120.8769408 125.4089408  56.7100000 148.0309408 145.7699408  30.2010000
 147.6519408 146.3839408  29.5710000 148.7909408 146.2309408  30.5560000
 122.9169408 130.2559408  52.9200000 122.3259408 130.8239408  52.4250000
 123.4999408 130.8599408  53.3800000 141.1939408 124.9999408  54.4080000
 140.3499408 125.2639408  54.7730000 141.2559408 124.0639408  54.5980000
 146.5439408 125.5789408  55.9390000 145.8209408 124.9659408  55.8060000
 147.3229408 125.0939408  55.6660000 148.7599408 148.1839408  33.0480000
 148.8759408 147.2849408  33.3560000 149.4779408 148.3219408  32.4310000
 122.6489408 127.0719408  53.3300000 122.9159408 127.8839408  52.8980000
 122.1039408 126.6239408  52.6820000 142.4329408 144.4709408  30.8190000
 141.6569408 144.3989408  31.3750000 142.5059408 143.6149408  30.3970000
 147.0089408 127.7539408  50.9100000 147.1639408 127.5669408  51.8360000
 146.1749408 127.3249408  50.7160000 123.2349408 138.6979408  54.7910000
 122.6099408 137.9739408  54.8150000 124.0829408 138.2909408  54.9680000
 125.1829408 135.2449408  58.7310000 125.2499408 134.6459408  57.9880000
 126.0909408 135.4169408  58.9820000 139.5569408 139.2589408  34.7920000
 139.8279408 138.5009408  34.2750000 139.5719408 139.9889408  34.1730000
 146.9399408 130.5709408  35.5480000 147.2969408 131.4359408  35.7460000
 147.5429408 130.2049408  34.9000000 142.1869408 127.3489408  53.2340000
 142.6329408 127.2299408  52.3960000 141.9849408 126.4599408  53.5270000
 143.0549408 146.8219408  45.9560000 142.1179408 146.8199408  46.1500000
 143.1779408 146.0819408  45.3610000 146.0829408 134.9759408  52.9120000
 146.8299408 134.5689408  52.4730000 146.1679408 134.7089408  53.8270000
 121.7139408 124.7479408  34.2270000 121.3929408 124.3309408  33.4270000
 121.0859408 124.4889408  34.9010000 146.7119408 148.8939408  31.2240000
 147.5319408 148.5429408  31.5710000 146.3319408 149.3829408  31.9540000
 144.2559408 143.5429408  48.3680000 144.2759408 142.7569408  48.9150000
 145.1489408 143.6239408  48.0320000 147.4089408 148.0439408  58.3580000
 146.8659408 148.5749408  58.9420000 148.0689408 148.6529408  58.0260000
 126.1619408 141.5309408  55.3790000 126.6229408 142.3089408  55.0660000
 126.8009408 140.8229408  55.2930000 144.1759408 138.5089408  31.7660000
 144.5339408 139.3739408  31.5650000 144.8279408 138.1069408  32.3410000
 145.2449408 135.1359408  49.2390000 144.6809408 135.3399408  49.9860000
 145.0279408 135.8009408  48.5860000 147.8889408 122.9389408  30.7890000
 147.1389408 122.3659408  30.9500000 147.5709408 123.8159408  31.0000000
 137.5889408 125.9449408  51.8650000 137.9269408 125.0509408  51.9150000
 138.2399408 126.4199408  51.3480000 138.6329408 123.7929408  57.6990000
 139.4459408 123.2949408  57.6140000 138.5859408 124.0199408  58.6280000
 149.2179408 131.7099408  56.2810000 149.3859408 131.1539408  57.0420000
 149.5759408 132.5639408  56.5240000 140.0679408 126.6019408  50.6770000
 140.4109408 125.7399408  50.4420000 140.8469408 127.1369408  50.8290000
 149.4139408 123.1659408  46.0720000 149.2369408 122.3849408  46.5970000
 148.9069408 123.8589408  46.4960000 146.1419408 132.3979408  57.6270000
 145.4329408 132.2329408  58.2480000 146.9029408 132.5879408  58.1750000
 137.8799408 127.6249408  54.1220000 137.7579408 126.6759408  54.0920000
 137.0159408 127.9709408  54.3480000 141.5639408 135.6829408  55.4200000
 142.2419408 135.5029408  56.0710000 141.3869408 134.8329408  55.0160000
 149.8499408 122.5939408  58.7080000 149.3119408 122.9239408  59.4270000
 149.7199408 123.2259408  58.0010000 144.0009408 124.7069408  35.0710000
 143.8849408 124.5229408  34.1390000 144.2479408 123.8649408  35.4530000
 148.6979408 124.9809408  53.9730000 149.2289408 125.6649408  54.3820000
 149.2709408 124.2149408  53.9480000 122.5169408 123.7909408  58.9940000
 122.3399408 124.7299408  59.0370000 122.0049408 123.4829408  58.2460000
 129.8899408 131.8059408  47.1790000 130.2009408 131.2239408  47.8720000
 130.1229408 131.3559408  46.3660000 122.2539408 135.9619408  54.7120000
 121.4929408 135.4689408  54.4070000 123.0069408 135.4519408  54.4130000
 140.1359408 136.2199408  58.9780000 139.9219408 135.3049408  58.7990000
 140.5769408 136.2019408  59.8280000 140.0029408 129.2039408  53.4090000
 140.8009408 128.6759408  53.4560000 139.3039408 128.6049408  53.6730000
 143.6059408 132.7209408  44.1930000 143.3069408 132.6279408  43.2890000
 143.8659408 133.6389408  44.2670000 141.9269408 138.4589408  57.4240000
 141.6859408 139.2179408  57.9550000 141.2059408 137.8409408  57.5460000
 140.6599408 140.6539408  58.5530000 140.8069408 140.9329408  59.4560000
 140.5649408 141.4699408  58.0610000 143.0969408 127.0939408  50.7320000
 143.5719408 127.7899408  50.2780000 143.5829408 126.2959408  50.5220000
 120.1209408 127.1739408  55.0360000 121.0009408 127.3079408  54.6820000
 119.6779408 128.0119408  54.9010000 141.2829408 124.2129408  40.2370000
 142.1709408 124.4309408  40.5200000 140.9569408 125.0169408  39.8310000
 125.2779408 131.5559408  37.5480000 124.8449408 130.9229408  38.1220000
 125.5749408 132.2489408  38.1370000 126.0519408 126.0389408  42.9900000
 126.7619408 125.9259408  42.3580000 125.9799408 126.9859408  43.1040000
 145.8779408 134.2189408  55.3820000 145.9199408 133.5969408  56.1090000
 145.3539408 134.9449408  55.7190000 146.9689408 146.1229408  52.1750000
 147.8909408 146.2139408  52.4190000 146.8059408 146.8519408  51.5770000
 120.5089408 129.7659408  43.8980000 119.8269408 129.7809408  44.5700000
 120.2249408 129.0889408  43.2830000 142.0069408 133.9469408  46.1180000
 142.6479408 133.3789408  45.6900000 142.4899408 134.3509408  46.8390000
 141.3509408 143.5839408  57.1550000 142.0519408 144.1379408  56.8110000
 140.8199408 144.1729408  57.6900000 123.1369408 135.9089408  47.4420000
 123.2879408 136.7359408  47.8990000 122.3239408 136.0479408  46.9560000
 144.1139408 123.7159408  51.1230000 144.5879408 124.4759408  50.7840000
 144.5419408 123.5189408  51.9560000 119.8739408 129.2279408  57.4500000
 120.4399408 129.4969408  56.7260000 120.4529408 128.7489408  58.0430000
 133.7419408 126.4529408  45.6390000 134.2449408 126.8479408  44.9270000
 133.4279408 127.1979408  46.1520000 148.1879408 132.5169408  59.3490000
 149.0379408 132.9559408  59.3450000 148.2049408 131.9679408  60.1330000
 123.9139408 134.3159408  50.0960000 123.3239408 135.0459408  50.2810000
 123.8699408 134.2069408  49.1460000 139.3529408 129.0949408  49.9650000
 138.9699408 129.8979408  50.3180000 139.1119408 128.4159408  50.5960000
 137.2159408 122.2419408  44.2630000 137.4569408 121.6839408  45.0030000
 136.9959408 123.0849408  44.6600000 125.4609408 134.3169408  56.1370000
 124.8509408 133.6819408  55.7600000 126.2679408 133.8219408  56.2740000
 126.1759408 123.6459408  53.8610000 127.0319408 123.4339408  54.2340000
 125.6269408 123.8449408  54.6190000 120.6509408 134.1239408  53.5250000
 119.7119408 133.9479408  53.5810000 120.9809408 133.4709408  52.9080000
 122.0539408 132.5049408  51.6720000 122.7779408 133.0489408  51.3630000
 121.3189408 132.7389408  51.1060000 147.4739408 128.2959408  37.3770000
 147.0789408 129.0559408  36.9490000 147.4529408 127.6089408  36.7110000
 124.6389408 128.2059408  30.3610000 124.5499408 129.1419408  30.5400000
 125.5799408 128.0399408  30.4160000 123.5789408 125.2939408  44.7230000
 124.2869408 125.7469408  44.2640000 122.8469408 125.9109408  44.7040000
 134.3679408 128.5949408  50.4910000 134.4269408 129.5469408  50.5680000
 134.3979408 128.4279408  49.5490000 122.4339408 149.4479408  51.3220000
 121.7669408 148.7629408  51.3040000 122.1439408 150.0829408  50.6670000
 139.6399408 137.0629408  51.6660000 140.2749408 137.2579408  52.3550000
 139.4069408 137.9179408  51.3040000 147.1349408 132.3819408  51.4320000
 146.3539408 131.8949408  51.6950000 147.7049408 132.3559408  52.2000000
 121.7099408 124.5589408  47.3620000 121.2679408 124.1129408  46.6390000
 121.0809408 125.2169408  47.6580000 123.7859408 123.1389408  35.5410000
 124.7399408 123.2159408  35.5740000 123.5029408 123.8839408  35.0110000
 142.3099408 130.3559408  51.7640000 141.7209408 131.1059408  51.6740000
 141.7629408 129.6659408  52.1410000 148.6129408 140.5529408  50.3810000
 149.2029408 140.8629408  51.0670000 148.5069408 141.3039408  49.7970000
 138.5159408 145.7009408  30.7170000 138.6129408 146.6029408  31.0230000
 139.1969408 145.5999408  30.0510000 144.3199408 135.3179408  43.4330000
 143.7379408 136.0469408  43.2200000 144.8819408 135.6559408  44.1310000
 142.5469408 135.5769408  34.2880000 141.8889408 136.0879408  33.8160000
 142.4899408 134.7009408  33.9070000 139.5539408 120.0589408  47.2370000
 139.8519408 120.3489408  46.3750000 138.6799408 120.4369408  47.3290000
 144.5779408 146.1839408  49.7680000 145.3119408 145.7339408  49.3490000
 143.8019408 145.8429408  49.3220000 141.9709408 149.7309408  34.2900000
 141.4919408 150.5529408  34.3860000 142.2929408 149.5359408  35.1700000
 139.7779408 143.9979408  43.5600000 140.2779408 144.1409408  42.7560000
 140.3799408 143.5269408  44.1360000 136.2369408 122.5929408  37.0360000
 136.4979408 121.7169408  36.7530000 137.0569408 123.0199408  37.2820000
 137.8549408 123.6489408  38.8230000 138.0219408 124.5789408  38.9790000
 137.6949408 123.2839408  39.6930000 140.3289408 144.1079408  32.8240000
 139.6049408 144.5969408  32.4350000 140.2499408 144.2699408  33.7640000
 141.6989408 120.0119408  49.4060000 142.3109408 119.7979408  48.7010000
 140.9559408 120.4209408  48.9620000 147.1489408 141.4149408  38.1260000
 147.0169408 141.9989408  38.8730000 146.3659408 140.8649408  38.1090000
 141.1139408 122.1109408  34.7390000 141.1109408 122.6599408  35.5240000
 141.5609408 122.6399408  34.0780000 142.0079408 130.1399408  46.2200000
 141.9829408 130.3189408  45.2790000 142.8879408 129.7949408  46.3750000
 136.6089408 138.0909408  43.3550000 136.7289408 137.5009408  42.6110000
 137.4469408 138.5439408  43.4390000 147.8639408 137.4319408  39.3610000
 147.7469408 137.2979408  40.3010000 148.3079408 138.2779408  39.2930000
 121.0329408 145.6039408  43.9710000 120.2089408 145.2399408  44.2930000
 121.2309408 145.0919408  43.1870000 121.9339408 149.6879408  48.6420000
 122.2469408 148.7839408  48.6550000 121.5109408 149.7829408  47.7880000
 121.1559408 138.4609408  50.0400000 120.2709408 138.7809408  49.8660000
 121.0349408 137.5459408  50.2950000 122.0799408 148.3339408  33.5080000
 121.6479408 148.7749408  32.7770000 122.4669408 149.0439408  34.0210000
 137.4589408 139.6149408  36.9330000 136.5709408 139.2699408  37.0270000
 137.7209408 139.3639408  36.0470000 145.5019408 145.3549408  58.7860000
 146.3499408 144.9159408  58.7100000 145.0439408 145.1329408  57.9750000
 146.6749408 137.5639408  43.5590000 146.2789408 137.7839408  44.4030000
 146.8119408 136.6169408  43.5990000 139.9319408 143.5469408  35.4520000
 139.4589408 142.7149408  35.4690000 140.8459408 143.3059408  35.6030000
 143.0439408 141.6259408  43.4910000 142.5689408 141.6099408  42.6600000
 143.9519408 141.4399408  43.2520000 141.5259408 147.0239408  33.9340000
 141.8329408 146.7029408  33.0860000 141.8009408 147.9409408  33.9570000
 142.5659408 143.1829408  36.2490000 142.5139408 142.3989408  36.7960000
 143.4839408 143.2299408  35.9820000 122.7359408 143.2419408  51.7040000
 122.8889408 143.6109408  50.8350000 122.5469408 143.9999408  52.2570000
 145.2289408 123.2469408  42.4100000 144.8559408 122.6399408  41.7710000
 146.0849408 123.4789408  42.0500000 123.0529408 146.7679408  45.5720000
 122.4119408 146.2939408  45.0430000 123.1159408 147.6289408  45.1590000
 144.1119408 141.8259408  33.7350000 144.7569408 142.4489408  34.0690000
 144.4369408 141.5849408  32.8680000 145.3229408 136.5199408  33.7300000
 145.4299408 135.8639408  33.0410000 144.4889408 136.2979408  34.1450000
 121.2079408 144.3789408  58.9760000 120.7519408 143.5889408  59.2650000
 122.1189408 144.1049408  58.8680000 145.6729408 140.8899408  53.2500000
 145.9379408 141.6929408  52.8020000 145.0279408 140.4909408  52.6670000
 148.0719408 135.0429408  44.1250000 148.3279408 134.1539408  43.8810000
 148.7059408 135.6059408  43.6790000 141.4969408 137.6769408  38.9910000
 140.6869408 137.9649408  39.4120000 141.2069408 137.1699408  38.2330000
 141.3089408 141.2979408  40.9070000 140.3719408 141.3809408  41.0840000
 141.3559408 140.9219408  40.0280000 139.9409408 145.9629408  58.3800000
 139.0549408 146.3189408  58.3170000 140.3819408 146.2749408  57.5900000
 142.7679408 139.3119408  47.3790000 142.3009408 140.0629408  47.0110000
 143.4259408 139.6989408  47.9570000 139.7129408 141.5399408  37.5910000
 139.1179408 140.8719408  37.2500000 140.5109408 141.0599408  37.8100000
 143.7039408 137.7479408  40.5130000 144.1529408 136.9339408  40.2860000
 142.9529408 137.7799408  39.9200000 147.4709408 145.8359408  36.5070000
 147.7579408 144.9329408  36.6370000 147.3959408 145.9299408  35.5570000
 147.1539408 145.2229408  48.8610000 147.2309408 144.5909408  48.1470000
 147.9429408 145.7599408  48.7930000 148.9979408 135.2499408  47.3840000
 148.6679408 135.0439408  48.2580000 148.5579408 134.6249408  46.8080000
 137.0249408 142.7099408  47.6690000 136.8809408 142.0149408  47.0260000
 136.7759408 143.5139408  47.2140000 145.5159408 122.1409408  32.2740000
 144.6969408 122.6339408  32.2290000 145.2789408 121.3189408  32.7030000
 147.8379408 136.4779408  34.9610000 147.1649408 136.4449408  34.2810000
 148.2269408 137.3489408  34.8720000 138.1619408 131.4479408  48.1310000
 138.1129408 131.6889408  49.0560000 139.0279408 131.7449408  47.8520000
 131.7949408 124.1809408  45.4660000 131.0579408 124.3869408  46.0420000
 132.4969408 124.7619408  45.7580000 144.6279408 149.7129408  33.2650000
 143.6809408 149.5999408  33.3410000 144.9819408 149.3039408  34.0550000
 144.1549408 148.4689408  38.6710000 144.9869408 147.9959408  38.6860000
 143.5239408 147.8559408  39.0480000 147.6299408 148.3429408  37.5860000
 147.5669408 147.3909408  37.5050000 147.5549408 148.5079408  38.5260000
 146.7179408 143.2369408  47.1170000 147.0469408 143.5299408  46.2670000
 146.4409408 142.3329408  46.9690000 148.6429408 143.4169408  32.1320000
 149.5469408 143.7219408  32.2000000 148.2299408 144.0239408  31.5180000
 138.1019408 149.3339408  43.8490000 138.8249408 149.9569408  43.9170000
 138.5209408 148.5029408  43.6270000 120.8829408 135.8929408  50.9960000
 121.0199408 135.6469408  51.9110000 120.0429408 135.4959408  50.7640000
 149.7119408 147.0349408  48.1520000 149.5509408 147.4989408  47.3300000
 149.2639408 147.5589408  48.8150000 127.1339408 143.6299408  47.5170000
 126.9599408 144.4419408  47.0430000 127.4829408 143.0339408  46.8540000
 124.8129408 140.6049408  50.3340000 124.8989408 141.5329408  50.5520000
 124.8869408 140.1529408  51.1740000 145.3029408 146.0099408  41.7730000
 145.0519408 145.5969408  40.9470000 144.6769408 146.7259408  41.8830000
 135.4609408 143.4619408  33.0360000 135.9439408 143.2799408  32.2300000
 135.3659408 142.6069408  33.4560000 145.1669408 145.1589408  31.8110000
 144.2559408 144.8679408  31.8270000 145.3879408 145.2049408  30.8810000
 141.1539408 147.1659408  36.5480000 141.4189408 146.9389408  35.6570000
 141.5359408 148.0299408  36.7000000 137.0539408 146.8609408  58.2050000
 136.3929408 147.1089408  58.8510000 136.5519408 146.4939408  57.4770000
 136.0469408 124.5639408  45.7710000 136.0809408 124.5099408  46.7260000
 135.4529408 125.2939408  45.5940000 122.8799408 147.4629408  42.2670000
 122.0239408 147.0379408  42.2150000 123.2679408 147.3299408  41.4030000
 148.6919408 139.2009408  33.8620000 149.5599408 138.8229408  33.7170000
 148.1619408 138.8679408  33.1380000 147.3199408 138.8899408  31.5420000
 147.8129408 139.1749408  30.7720000 147.3469408 137.9339408  31.5040000
 120.1709408 145.8719408  33.6420000 120.6029408 145.3299408  32.9810000
 120.8439408 146.4929408  33.9200000 141.9069408 140.2649408  38.2860000
 141.7919408 139.3209408  38.3890000 142.4119408 140.3589408  37.4790000
 140.8209408 145.7819408  41.5460000 140.6039408 145.9449408  40.6280000
 140.7959408 146.6459408  41.9560000 147.3569408 121.1799408  36.2670000
 147.6309408 121.6629408  35.4870000 148.0139408 120.4909408  36.3660000
 138.4929408 140.8929408  41.3400000 138.2899408 140.2629408  40.6490000
 137.8709408 141.6069408  41.2050000 147.5929408 148.9229408  40.4380000
 147.4519408 149.3709408  41.2720000 148.5019408 148.6269408  40.4740000
 129.8979408 148.3239408  47.5680000 130.5479408 147.6229408  47.5210000
 129.0609408 147.8869408  47.4100000 120.6229408 145.0849408  49.8260000
 121.5509408 144.8679408  49.9130000 120.5909408 145.7159408  49.1080000
 132.2699408 136.4249408  58.7760000 132.9509408 137.0969408  58.8060000
 132.4539408 135.9319408  57.9760000 149.5049408 129.6089408  33.9390000
 149.2369408 129.4409408  33.0360000 150.3389408 129.1489408  34.0320000
 144.9399408 148.5519408  42.8940000 145.6679408 148.0659408  43.2810000
 145.3499408 149.3119408  42.4820000 146.2609408 140.5759408  46.5330000
 145.9599408 139.7359408  46.1870000 147.1519408 140.4039408  46.8380000
 120.9209408 149.9589408  39.9480000 121.4189408 149.3979408  39.3520000
 120.0779408 150.0829408  39.5120000 120.1289408 120.2789408  36.1440000
 120.1339408 120.2069408  35.1890000 120.6739408 119.5509408  36.4420000
 140.1059408 146.3139408  38.9570000 140.3829408 146.3689408  38.0430000
 139.8789408 147.2129408  39.1940000 143.6379408 149.1839408  57.3740000
 143.8629408 148.6559408  58.1400000 143.7149408 150.0889408  57.6760000
 137.8029408 121.4979408  32.0150000 137.8179408 121.3079408  32.9530000
 137.9959408 120.6579408  31.5970000 141.2849408 141.4409408  33.2030000
 142.1909408 141.6019408  33.4660000 140.9289408 142.3109408  33.0260000
 144.8339408 138.1349408  45.5300000 145.1179408 137.2749408  45.8380000
 144.2629408 138.4619408  46.2250000 145.9399408 143.0769408  40.1740000
 145.0409408 142.8989408  40.4490000 145.8779408 143.8789408  39.6550000
 127.8459408 124.6539408  58.8310000 128.2209408 124.7389408  59.7070000
 127.3629408 123.8279408  58.8550000 120.5509408 143.0329408  38.3860000
 120.1859408 143.4379408  37.6000000 119.8569408 143.1109408  39.0410000
 141.0919408 122.8469408  57.7180000 141.6289408 122.2659408  58.2570000
 141.7059408 123.5029408  57.3870000 139.0939408 145.2559408  47.6310000
 138.8449408 145.5209408  48.5160000 138.5189408 144.5169408  47.4310000
 144.6889408 146.4959408  53.9890000 145.4609408 146.4079408  53.4300000
 144.0209408 145.9579408  53.5630000 139.7889408 147.3129408  53.2930000
 140.5389408 147.1429408  52.7230000 139.6029408 148.2449408  53.1720000
 146.0789408 148.6559408  35.3270000 146.5179408 148.9459408  36.1270000
 146.5309408 147.8469408  35.0860000 141.9989408 147.5469408  31.0180000
 142.9239408 147.6119408  30.7810000 141.7279408 146.6889408  30.6910000
 137.6129408 140.7449408  33.2240000 137.4149408 139.8939408  32.8320000
 137.7729408 141.3209408  32.4770000 148.7029408 143.2359408  50.3090000
 149.5569408 143.6369408  50.1500000 148.0819408 143.8059408  49.8540000
 139.1839408 142.3919408  49.3730000 138.8759408 142.0519408  50.2130000
 138.3959408 142.4469408  48.8330000 148.9259408 139.3549408  59.1130000
 148.4939408 139.0299408  58.3230000 149.7449408 138.8629408  59.1590000
 142.4529408 142.8319408  54.3870000 143.2899408 143.2969408  54.4070000
 141.9209408 143.3219408  53.7600000 149.3329408 140.1069408  39.6110000
 150.1389408 140.5079408  39.2850000 148.7129408 140.1949408  38.8870000
 149.7389408 121.2499408  52.7270000 149.9719408 120.5979408  52.0660000
 148.7969408 121.1349408  52.8560000 134.6139408 144.3099408  58.8680000
 133.7559408 144.7329408  58.8890000 135.0889408 144.7639408  58.1720000
 121.4839408 140.5129408  56.1210000 121.9909408 139.8839408  55.6070000
 120.8779408 140.9039408  55.4910000 146.4009408 130.1289408  59.6700000
 146.3809408 130.6799408  60.4520000 146.2529408 130.7369408  58.9450000
 149.0999408 146.4319408  55.9860000 148.5239408 146.4859408  56.7480000
 148.5919408 145.9469408  55.3350000 147.4289408 144.6289408  54.5640000
 146.6139408 144.5409408  54.0710000 147.3679408 143.9629408  55.2490000
 146.4519408 138.2429408  53.9800000 146.5979408 139.0739408  53.5290000
 145.5169408 138.0689408  53.8690000 146.6279408 125.1689408  60.1560000
 145.8039408 124.7719408  59.8740000 146.6229408 126.0389408  59.7570000
 122.8429408 145.7119408  53.1490000 123.7689408 145.4969408  53.0340000
 122.8479408 146.5679408  53.5780000 143.8769408 141.7659408  57.1800000
 144.5629408 142.2469408  56.7180000 143.0929408 142.3049408  57.0720000
 148.0669408 135.0089408  50.1910000 148.0739408 135.9439408  49.9830000
 147.1889408 134.8459408  50.5340000 146.0639408 137.5379408  58.8710000
 146.7539408 136.9079408  58.6660000 146.4249408 138.3839408  58.6060000
 149.9059408 148.0329408  51.8660000 149.3759408 148.3819408  52.5830000
 150.0419408 147.1129408  52.0930000 147.5559408 143.3009408  58.4550000
 148.1949408 143.8009408  58.9620000 148.0589408 142.9369408  57.7270000
 147.8099408 137.9179408  56.6380000 147.3599408 138.3039408  55.8870000
 147.8709408 136.9859408  56.4280000 140.8229408 140.4389408  54.5460000
 141.4419408 141.1659408  54.6110000 140.8099408 140.2179408  53.6140000
 146.1169408 120.6769408  56.5390000 145.8869408 120.0879408  55.8210000
 146.9099408 120.2969408  56.9170000 144.0979408 132.2559408  59.3850000
 143.7049408 133.1289408  59.3770000 143.3609408 131.6629408  59.5350000
 123.7959408 122.6399408  31.5360000 123.1589408 123.0979408  30.9870000
 123.2689408 122.0539408  32.0780000 149.0779408 142.0099408  56.4940000
 149.7929408 141.5059408  56.8830000 149.4689408 142.4279408  55.7270000
 146.4579408 142.1029408  55.8250000 147.2999408 141.6859408  56.0080000
 146.1359408 141.6579408  55.0400000 144.2699408 149.2149408  54.6630000
 144.2869408 148.9489408  55.5820000 144.4699408 148.4149408  54.1780000
 139.3969408 142.8279408  55.2380000 139.5079408 142.1059408  54.6190000
 140.1119408 142.7199408  55.8640000 140.7379408 123.9019408  50.2470000
 140.8629408 123.9519408  49.3000000 141.6089408 124.0529408  50.6130000
 149.0199408 148.8129408  54.3330000 149.8619408 149.1639408  54.6250000
 148.8459408 148.0819408  54.9260000 136.8359408 121.2099408  57.0900000
 137.4759408 120.5949408  57.4500000 137.1229408 122.0669408  57.4050000
 146.1579408 146.4039408  33.9090000 145.6669408 147.2129408  34.0520000
 145.8099408 146.0549408  33.0890000 137.0399408 148.4119408  54.8180000
 137.5809408 148.5059408  55.6020000 137.1749408 147.5059408  54.5410000
 143.6199408 144.9529408  52.0760000 142.8519408 144.5989408  51.6270000
 144.1499408 145.3379408  51.3780000 141.2529408 143.5169408  50.7880000
 140.5179408 143.0819408  50.3570000 140.8559408 143.9929408  51.5170000
 123.1729408 149.6979408  53.8650000 122.8949408 149.4999408  52.9710000
 123.6089408 150.5479408  53.7990000 144.4219408 129.4159408  50.1160000
 145.2529408 129.6309408  50.5400000 143.7539408 129.7569408  50.7110000
 122.7039408 141.1609408  30.5350000 121.8629408 141.6189408  30.5440000
 122.8899408 141.0209408  29.6060000 138.5739408 146.5729408  49.9790000
 139.3969408 147.0059408  50.2050000 137.9349408 146.9379408  50.5900000
 143.9579408 121.6669408  53.3620000 143.0839408 121.9459408  53.6370000
 144.0009408 120.7409408  53.6010000 148.8059408 136.1259408  59.0390000
 149.4149408 136.8549408  58.9240000 149.3669408 135.3549408  59.1220000
 143.5929408 140.4459408  36.1030000 144.4549408 140.0469408  36.2220000
 143.6239408 140.8299408  35.2270000 141.0189408 141.9559408  47.3460000
 140.6409408 142.0609408  48.2200000 141.4569408 142.7889408  47.1720000
 149.3579408 126.4659408  51.7420000 148.9689408 126.1709408  50.9190000
 149.0259408 125.8529408  52.3980000 125.0389408 140.2599408  53.3180000
 125.4329408 140.8059408  53.9980000 124.2329408 139.9279408  53.7140000
 144.5659408 147.9129408  59.5880000 144.9279408 147.0679408  59.3220000
 145.1819408 148.2429408  60.2420000 142.3159408 120.6029408  30.0200000
 142.8489408 120.3259408  30.7650000 142.9519408 120.8169408  29.3370000
 122.0639408 122.4419408  49.6400000 122.0359408 123.1009408  48.9460000
 121.3919408 121.8059408  49.3950000 136.0279408 149.2599408  48.5900000
 135.0909408 149.1729408  48.4130000 136.1359408 148.9249408  49.4800000
 140.3859408 144.2079408  53.2040000 140.0829408 145.1069408  53.3300000
 139.8389408 143.6859408  53.7910000 120.8689408 126.2169408  30.9050000
 121.1979408 126.6709408  30.1290000 121.6129408 126.1979408  31.5060000
 124.5629408 145.8619408  55.9740000 123.6279408 146.0279408  56.0910000
 124.7009408 144.9909408  56.3480000 130.0009408 146.2329408  51.9690000
 130.8279408 145.7619408  52.0740000 130.2609408 147.1449408  51.8330000
 133.1139408 149.2469408  48.1040000 133.4209408 148.6579408  47.4150000
 132.3449408 149.6749408  47.7280000 124.1209408 133.6749408  73.7610000
 124.0209408 134.4239408  74.3480000 124.6659408 133.0579408  74.2490000
 139.4019408 137.0039408  63.4620000 139.3069408 136.1259408  63.8320000
 138.6369408 137.1089408  62.8970000 126.9639408 147.2739408  64.1330000
 126.2589408 146.7169408  64.4630000 126.9889408 148.0129408  64.7410000
 141.1249408 121.1489408  81.7350000 140.9649408 120.2999408  81.3230000
 141.6349408 121.6379408  81.0890000 126.7109408 138.7099408  81.4700000
 126.3839408 139.3649408  82.0880000 127.6529408 138.8729408  81.4250000
 131.8849408 131.9679408  72.0810000 131.2899408 131.2449408  72.2800000
 132.7569408 131.5759408  72.1090000 125.8789408 126.9689408  68.7010000
 125.4139408 126.1719408  68.4480000 125.9029408 127.4959408  67.9020000
 135.1049408 137.8279408  75.6050000 134.2939408 137.6459408  75.1300000
 135.7899408 137.7719408  74.9380000 120.6359408 134.0729408  68.5360000
 119.8129408 134.3929408  68.1640000 120.9089408 133.3719408  67.9450000
 138.8559408 138.6129408  69.2840000 138.4689408 138.1719408  70.0410000
 138.1489408 139.1559408  68.9360000 129.0639408 128.6819408  77.8260000
 128.4579408 128.2489408  78.4280000 129.3939408 127.9759408  77.2700000
 131.2259408 131.3479408  65.7040000 130.6419408 131.7979408  66.3140000
 131.6789408 130.6969408  66.2400000 137.4669408 135.2269408  77.9080000
 137.9479408 135.1439408  78.7320000 138.1319408 135.1079408  77.2300000
 142.0799408 129.5039408  66.3360000 141.9909408 129.7379408  65.4120000
 142.7389408 130.1109408  66.6740000 125.6149408 133.6859408  68.9500000
 125.7649408 133.7169408  69.8950000 124.7539408 134.0859408  68.8300000
 149.3079408 138.9599408  75.2020000 149.6479408 139.5329408  75.8900000
 149.8979408 139.0979408  74.4610000 132.9309408 145.5519408  74.1980000
 133.8639408 145.3599408  74.1090000 132.5239408 145.1209408  73.4470000
 148.0369408 125.5629408  65.5490000 147.0969408 125.6829408  65.4130000
 148.2159408 124.6789408  65.2300000 138.3629408 141.3589408  60.6810000
 137.7089408 142.0489408  60.5670000 138.2789408 140.8169408  59.8970000
 130.6849408 135.9839408  66.6650000 131.1339408 136.8249408  66.7490000
 129.8769408 136.0929408  67.1670000 148.7999408 129.9389408  75.7730000
 147.8609408 129.9999408  75.5990000 148.8569408 129.5959408  76.6650000
 122.3889408 140.7699408  63.8460000 123.1819408 141.3059408  63.8470000
 122.6729408 139.9199408  64.1820000 137.9779408 134.4559408  70.6650000
 137.2519408 134.3639408  70.0480000 137.7039408 133.9559408  71.4340000
 133.5299408 134.6779408  60.5350000 132.9009408 133.9769408  60.7060000
 133.0779408 135.2629408  59.9270000 136.9329408 142.0279408  73.3670000
 137.2779408 142.9039408  73.1980000 137.6629408 141.4399408  73.1730000
 131.7599408 143.1179408  68.5430000 131.6899408 143.8819408  67.9720000
 132.0759408 142.4179408  67.9710000 134.5309408 146.0489408  61.8910000
 135.1549408 146.0429408  61.1650000 134.9719408 145.5639408  62.5890000
 121.5889408 127.8679408  65.1380000 121.9129408 127.0799408  64.7030000
 122.3749408 128.2939408  65.4810000 124.3779408 121.6949408  76.6380000
 123.4469408 121.8319408  76.4640000 124.7679408 121.5709408  75.7730000
 131.0189408 122.1809408  78.1460000 130.7569408 123.1019408  78.1390000
 131.6919408 122.1279408  78.8240000 135.1549408 120.6799408  68.8720000
 134.7649408 121.4279408  68.4200000 135.0899408 119.9599408  68.2450000
 135.4189408 134.0349408  73.0950000 134.8099408 133.9809408  73.8320000
 134.8679408 134.2559408  72.3440000 126.8749408 146.9259408  69.7580000
 127.0919408 147.8089408  70.0560000 127.0169408 146.9499408  68.8120000
 148.5349408 135.5709408  67.6430000 148.4489408 136.1489408  66.8850000
 148.1879408 136.0809408  68.3750000 128.3539408 126.3839408  63.5020000
 129.0179408 126.9059408  63.0520000 127.9879408 126.9769408  64.1590000
 144.3849408 129.4109408  77.3650000 144.7209408 128.5179408  77.2950000
 144.2909408 129.5589408  78.3060000 127.7939408 133.7699408  67.0920000
 127.1589408 133.5089408  67.7590000 128.3649408 133.0079408  66.9930000
 129.0859408 122.8069408  72.3010000 129.2659408 123.2629408  71.4790000
 129.7729408 123.1059408  72.8980000 135.8509408 133.9929408  69.0110000
 135.1649408 134.5659408  68.6690000 135.4019408 133.1709408  69.2080000
 127.6489408 137.3009408  72.5020000 127.1329408 137.8939408  73.0490000
 127.6139408 136.4609408  72.9600000 142.4549408 123.6049408  62.6640000
 141.6819408 123.5749408  62.1000000 142.7979408 124.4919408  62.5530000
 141.2289408 140.5009408  74.9470000 140.8759408 141.0379408  75.6570000
 141.9479408 141.0209408  74.5870000 131.1919408 146.2969408  61.5580000
 131.2509408 147.2469408  61.6600000 131.6389408 145.9449408  62.3270000
 124.6869408 123.6109408  72.3470000 123.8339408 123.9499408  72.0730000
 125.2309408 124.3909408  72.4540000 131.3659408 140.8169408  72.9800000
 131.3449408 141.5859408  72.4090000 132.2869408 140.5579408  72.9990000
 135.5709408 124.5019408  83.2080000 136.1229408 125.1429408  82.7600000
 135.2669408 123.9189408  82.5130000 134.5329408 139.5259408  67.8070000
 134.0209408 138.9609408  68.3850000 133.9069408 140.1799408  67.4950000
 124.9169408 134.0799408  66.0540000 125.2429408 133.2809408  66.4690000
 124.3959408 134.5079408  66.7330000 131.9419408 124.9309408  78.4310000
 132.8109408 125.3169408  78.3240000 131.7659408 124.9919408  79.3700000
 122.9999408 143.7209408  64.9930000 122.5599408 143.1309408  65.6050000
 123.7909408 143.2499408  64.7310000 129.3909408 125.9979408  73.5600000
 128.4679408 125.8209408  73.7410000 129.5449408 125.6099408  72.6990000
 126.4589408 139.0469408  74.2110000 125.7969408 138.9559408  74.8960000
 127.0899408 139.6709408  74.5690000 132.7269408 124.7419408  73.0350000
 133.5559408 124.2759408  72.9230000 132.3699408 124.4009408  73.8560000
 130.9189408 135.5149408  71.9010000 130.0709408 135.1079408  71.7250000
 130.7289408 136.4519408  71.9560000 131.2779408 128.6519408  69.3500000
 131.3409408 127.9429408  69.9910000 130.6729408 129.2789408  69.7440000
 127.3769408 148.8119408  61.6800000 126.6809408 148.2869408  61.2850000
 127.2869408 148.6599408  62.6210000 135.6899408 138.6069408  64.5490000
 135.8669408 138.6029408  63.6090000 136.2479408 137.9129408  64.9010000
 126.0069408 120.8799408  64.4630000 126.8559408 120.4709408  64.2940000
 126.1609408 121.8149408  64.3310000 129.4119408 128.7209408  66.5640000
 129.9009408 128.4549408  67.3430000 130.0189408 129.2819408  66.0810000
 130.9679408 138.3959408  75.9660000 131.6029408 137.8829408  75.4660000
 130.1389408 137.9329408  75.8490000 129.0729408 130.0809408  69.9790000
 129.3089408 130.3209408  70.8750000 128.1399408 129.8699408  70.0250000
 128.6629408 143.0849408  65.7270000 129.1639408 142.7029408  66.4480000
 129.3049408 143.2099408  65.0280000 132.1909408 123.0269408  66.6490000
 132.5829408 123.5069408  67.3790000 132.8259408 122.3399408  66.4440000
 122.7639408 130.3209408  75.9390000 122.1979408 130.7929408  75.3280000
 122.1579408 129.8679408  76.5260000 123.7929408 125.9289408  78.5460000
 124.5359408 125.3939408  78.2680000 123.0419408 125.5539408  78.0850000
 127.2649408 125.4869408  70.7700000 126.6499408 126.0649408  70.3180000
 127.6409408 124.9459408  70.0760000 124.4899408 124.3149408  68.6110000
 123.8189408 123.6769408  68.8510000 124.7519408 124.0669408  67.7250000
 138.2059408 131.1969408  71.0920000 138.7899408 131.1579408  70.3350000
 137.3289408 131.0939408  70.7250000 132.6159408 122.7419408  62.6460000
 132.2479408 123.1119408  61.8440000 133.2749408 123.3789408  62.9240000
 123.9959408 130.0319408  79.2360000 124.7059408 129.4889408  78.8920000
 124.1359408 130.8909408  78.8370000 133.6049408 129.6929408  63.1680000
 134.0819408 128.9459408  63.5280000 134.2209408 130.4239408  63.2310000
 130.6809408 131.2849408  60.4750000 130.9629408 131.9649408  59.8630000
 130.5939408 131.7389408  61.3140000 126.1979408 148.7859408  67.3920000
 125.6229408 149.3219408  67.9370000 126.9389408 149.3569408  67.1890000
 135.6389408 126.6119408  68.9870000 135.6199408 126.6119408  69.9440000
 136.5409408 126.8459408  68.7660000 136.1629408 140.3279408  69.8410000
 135.8969408 140.1039408  68.9500000 135.7949408 139.6309408  70.3840000
 138.8369408 139.6889408  73.6890000 139.6529408 139.8079408  74.1740000
 139.0429408 139.9709408  72.7980000 127.3569408 134.9479408  74.1060000
 126.7409408 134.6609408  74.7800000 127.7119408 134.1349408  73.7450000
 142.1589408 131.9809408  68.6940000 142.2029408 132.9319408  68.6020000
 142.8179408 131.6489408  68.0840000 121.5759408 121.8369408  72.3790000
 121.6699408 121.3979408  71.5340000 121.7809408 122.7539408  72.1980000
 129.7979408 133.5629408  80.7020000 129.9119408 132.6129408  80.6900000
 130.2249408 133.8659408  79.9000000 132.6309408 133.1459408  74.3340000
 132.2629408 133.3379408  73.4710000 132.9819408 132.2589408  74.2530000
 130.1429408 128.5439408  62.9460000 130.7999408 128.6049408  62.2530000
 130.5939408 128.8529408  63.7320000 124.7069408 135.4199408  83.1280000
 124.5639408 135.8999408  82.3120000 124.9709408 136.0909408  83.7570000
 122.9149408 136.4549408  74.3630000 123.5279408 137.1049408  74.7050000
 122.2449408 136.3749408  75.0420000 129.9729408 121.6209408  69.1660000
 130.8859408 121.7839408  68.9290000 130.0159408 121.2549408  70.0490000
 132.5159408 129.3919408  67.0440000 132.9239408 128.9559408  66.2950000
 132.6179408 128.7729408  67.7670000 140.6819408 134.5549408  70.8580000
 140.4699408 134.9719408  71.6930000 139.8309408 134.3559408  70.4670000
 125.0659408 132.1979408  78.1450000 125.8319408 131.7159408  77.8330000
 124.6889408 132.5859408  77.3550000 124.4699408 126.9909408  81.0950000
 124.3759408 126.7169408  80.1820000 124.4599408 127.9469408  81.0610000
 136.7989408 128.8369408  81.9130000 136.1259408 128.2629408  81.5470000
 137.3839408 128.2479408  82.3890000 137.3339408 121.3149408  77.3720000
 137.1459408 122.1649408  77.7700000 136.5919408 120.7639408  77.6200000
 124.3569408 144.6489408  73.1330000 125.1819408 145.0809408  72.9100000
 123.8739408 145.2999408  73.6410000 126.0859408 134.8579408  71.4430000
 125.4669408 135.3769408  70.9300000 125.9959408 135.1919408  72.3360000
 133.4409408 136.1729408  68.5040000 133.3789408 135.9409408  67.5780000
 132.7799408 136.8539408  68.6260000 128.5019408 124.1379408  68.6120000
 128.8629408 124.4539408  67.7840000 128.9809408 123.3279408  68.7890000
 129.2219408 149.9579408  79.5540000 129.1209408 149.3189408  78.8490000
 129.7729408 150.6449408  79.1780000 125.8979408 146.1729408  75.7840000
 124.9769408 146.4009408  75.6590000 126.2559408 146.1269408  74.8980000
 124.1719408 128.0399408  66.5580000 123.5999408 128.3309408  67.2680000
 124.3229408 128.8259408  66.0330000 140.9309408 128.1219408  77.8530000
 140.4899408 128.4399408  78.6410000 141.2959408 128.9089408  77.4480000
 123.5469408 149.1949408  74.3880000 123.4529408 148.7309408  73.5560000
 124.0779408 149.9629408  74.1760000 127.6459408 135.5889408  60.5610000
 128.1379408 134.9059408  61.0160000 128.1499408 136.3889408  60.7110000
 129.7719408 122.8839408  65.6410000 130.6209408 122.7349408  66.0590000
 129.7999408 122.3549408  64.8440000 129.0259408 136.3989408  75.6100000
 128.7289408 136.0099408  76.4320000 128.4029408 136.0809408  74.9560000
 144.9449408 130.7089408  82.4340000 144.4059408 130.1399408  82.9830000
 144.3479408 131.3989408  82.1430000 132.9919408 126.0789408  80.9050000
 133.2669408 126.9929408  80.8340000 133.4549408 125.7489408  81.6750000
 139.7759408 137.0209408  66.7930000 139.6259408 137.7959408  66.2530000
 139.1299408 137.0889408  67.4960000 144.9269408 135.3199408  69.5870000
 145.3159408 134.5869408  70.0650000 145.3279408 135.2809408  68.7190000
 125.7419408 131.5499408  72.2860000 125.5099408 131.7689408  73.1890000
 126.5849408 131.9799408  72.1450000 149.0709408 122.3679408  73.5800000
 149.1899408 122.7229408  74.4610000 149.9599408 122.2269408  73.2550000
 135.3469408 127.8619408  73.5700000 135.5059408 127.1419408  72.9600000
 136.2199408 128.1279408  73.8590000 133.9419408 147.7469408  71.2050000
 133.6119408 147.6369408  72.0970000 133.2129408 148.1429408  70.7270000
 122.4759408 133.4329408  71.5170000 122.9669408 133.3179408  72.3310000
 122.3929408 134.3819408  71.4200000 124.0809408 130.9719408  70.1910000
 123.3579408 131.5829408  70.3280000 124.6869408 131.1519408  70.9110000
 122.4699408 122.2689408  69.4860000 121.9209408 123.0069408  69.2190000
 121.8819408 121.5139408  69.4670000 123.0199408 136.0899408  71.5960000
 122.9749408 136.1599408  72.5500000 123.1089408 136.9939408  71.2930000
 132.5739408 134.1909408  76.7410000 132.6879408 133.7449408  75.9010000
 133.3929408 134.6689408  76.8720000 129.4949408 135.9309408  63.8740000
 129.7659408 135.7989408  64.7830000 129.9059408 136.7569408  63.6190000
 128.0449408 138.2839408  77.2700000 127.8129408 137.5769408  77.8720000
 128.2419408 137.8409408  76.4450000 128.0199408 121.0509408  74.0630000
 128.1869408 121.8039408  73.4960000 128.5849408 121.1939408  74.8240000
 132.3299408 143.4389408  64.0320000 131.5709408 142.9229408  63.7610000
 133.0749408 143.0059408  63.6160000 123.8559408 148.2669408  66.1100000
 123.5329408 149.1219408  65.8250000 124.7399408 148.4389408  66.4320000
 122.1229408 142.1309408  77.8600000 122.8419408 141.8089408  77.3180000
 122.3069408 143.0629408  77.9750000 138.9909408 128.3469408  65.9690000
 139.9089408 128.3779408  66.2400000 138.8449408 127.4349408  65.7200000
 125.8029408 136.0779408  64.3120000 126.5949408 135.6419408  63.9980000
 125.6179408 135.6609408  65.1540000 135.6349408 131.6509408  63.7230000
 136.4549408 131.1739408  63.8460000 135.4639408 132.0589408  64.5730000
 133.6209408 135.0579408  71.2560000 132.8359408 135.3699408  71.7060000
 133.5009408 135.3309408  70.3470000 126.7349408 130.4089408  76.9120000
 127.6709408 130.2119408  76.8740000 126.3309408 129.5979408  77.2210000
 129.1019408 139.7299408  82.1000000 129.8669408 139.3959408  81.6300000
 129.3469408 140.6199408  82.3550000 128.8879408 140.4159408  61.5990000
 128.2829408 139.7779408  61.9770000 128.7719408 141.2019408  62.1330000
 133.4439408 120.5639408  65.1250000 134.2609408 120.5429408  65.6220000
 133.7179408 120.5099408  64.2090000 128.1309408 137.3219408  69.6840000
 128.1119408 138.2399408  69.4110000 127.9969408 137.3509408  70.6310000
 131.8609408 128.8709408  60.8180000 131.4729408 129.7019408  60.5460000
 132.8049408 129.0259408  60.7920000 134.0549408 140.7059408  79.8650000
 133.1819408 140.5199408  80.2090000 134.1139408 140.1809408  79.0660000
 128.7819408 134.8269408  70.5120000 127.8989408 134.6719408  70.8490000
 128.7299408 135.6859408  70.0920000 145.7759408 135.5769408  75.5950000
 146.5949408 135.4519408  75.1160000 145.8309408 134.9639408  76.3280000
 134.7319408 125.0299408  66.7360000 135.2879408 124.2539408  66.6670000
 135.2679408 125.6689408  67.2060000 134.8019408 135.4929408  76.8610000
 134.9129408 136.3009408  76.3600000 135.6729408 135.3059408  77.2110000
 147.4529408 132.4809408  72.6510000 146.9679408 131.6609408  72.7380000
 148.3159408 132.2169408  72.3320000 139.8039408 130.9529408  68.8190000
 140.7069408 131.2619408  68.7410000 139.2889408 131.5889408  68.3220000
 133.6759408 132.0399408  68.3110000 132.9579408 132.4469408  68.7970000
 133.3909408 131.1369408  68.1740000 124.4319408 119.9699408  69.1520000
 124.9539408 120.3289408  69.8690000 123.7079408 120.5879408  69.0490000
 123.1979408 135.2869408  67.9950000 122.5999408 135.4139408  67.2590000
 122.7259408 134.7069408  68.5910000 133.4919408 130.2479408  75.4210000
 134.1179408 130.9619408  75.5410000 134.0109408 129.5349408  75.0460000
 148.8019408 126.7519408  75.1170000 148.5949408 126.3399408  74.2790000
 147.9779408 127.1509408  75.3980000 126.3509408 132.5299408  80.8020000
 125.7639408 132.6359408  80.0530000 126.8079408 133.3679408  80.8690000
 122.1939408 122.4329408  75.0200000 121.9859408 122.0149408  74.1840000
 122.7589408 123.1699408  74.7850000 140.3539408 121.1919408  74.3940000
 141.2449408 121.0649408  74.0680000 140.3279408 122.1089408  74.6690000
 132.9529408 138.1909408  64.7110000 132.8259408 138.4779408  65.6150000
 133.8859408 138.3269408  64.5450000 131.2079408 133.2309408  69.6310000
 131.4929408 133.1859408  70.5430000 130.4689408 133.8389408  69.6400000
 125.2889408 136.5969408  61.2440000 126.1979408 136.4009408  61.4730000
 125.0949408 136.0109408  60.5130000 125.9609408 121.2959408  70.8390000
 126.7089408 121.8909408  70.8830000 125.2019408 121.8499408  71.0230000
 134.0369408 129.3019408  70.0320000 133.0859408 129.2279408  69.9500000
 134.3769408 128.5189408  69.5980000 133.8409408 135.9929408  79.9150000
 133.3829408 135.6059408  79.1690000 134.1529408 136.8389408  79.5910000
 137.9259408 133.8949408  74.1400000 136.9729408 133.9149408  74.2200000
 138.2449408 134.1439408  75.0080000 137.9639408 124.7779408  60.3340000
 137.0519408 125.0459408  60.4500000 138.1979408 124.3589408  61.1630000
 126.0819408 131.7559408  63.1260000 125.2619408 132.2489408  63.0890000
 126.7199408 132.3779408  63.4750000 140.7849408 131.9599408  77.6010000
 141.3309408 131.2469408  77.2700000 140.9109408 132.6709408  76.9720000
 136.0959408 130.7469408  69.5820000 135.3069408 130.3579408  69.9590000
 136.3329408 130.1619408  68.8630000 131.8799408 131.9409408  63.1400000
 131.5959408 131.9629408  64.0530000 132.2839408 131.0799408  63.0340000
 130.6029408 138.1769408  72.3180000 129.6709408 138.0139408  72.4610000
 130.6839408 139.1309408  72.3230000 136.8019408 140.5669408  75.9690000
 137.5409408 139.9729408  75.8380000 136.7199408 141.0359408  75.1380000
 126.3819408 123.8779408  66.2780000 126.8239408 124.1609408  67.0780000
 126.7769408 124.4079408  65.5850000 137.8219408 130.6709408  84.7140000
 137.0509408 130.2079408  84.3860000 138.5589408 130.2549408  84.2680000
 140.9929408 136.8169408  61.4860000 141.3499408 137.6909408  61.3270000
 140.4049408 136.9299408  62.2320000 147.1529408 133.0869408  76.5300000
 147.5009408 132.5009408  77.2020000 146.4709408 132.5749408  76.0950000
 148.4819408 130.9349408  69.6410000 148.8959408 131.1749408  70.4700000
 148.9019408 131.4979408  68.9910000 134.8989408 146.5689408  68.8670000
 134.8359408 146.8249408  69.7880000 134.8469408 145.6129408  68.8800000
 126.4319408 129.2409408  69.6680000 125.6539408 129.7959408  69.6110000
 126.1929408 128.4429408  69.1960000 137.9739408 130.1959408  64.3400000
 138.5639408 130.9399408  64.4650000 138.2259408 129.5729408  65.0210000
 134.5639408 131.3319408  72.5050000 135.3129408 131.9219408  72.4160000
 134.8419408 130.5249408  72.0710000 125.8949408 139.3489408  70.4970000
 125.2319408 139.5939408  71.1420000 125.4229408 138.8129408  69.8600000
 130.5329408 124.8369408  71.0850000 130.4469408 125.5079408  70.4070000
 131.3799408 125.0149408  71.4930000 128.3729408 143.4639408  73.1860000
 129.1639408 143.9339408  72.9220000 127.6539408 143.9979408  72.8490000
 128.0019408 133.8009408  64.2870000 128.6839408 134.4149408  64.0160000
 127.9259408 133.9279408  65.2330000 128.5919408 140.0079408  71.6570000
 127.6919408 139.6829408  71.6220000 128.5009408 140.9549408  71.7650000
 128.5059408 149.5499408  64.7200000 129.2599408 149.8159408  64.1930000
 128.6619408 149.9459408  65.5770000 124.0379408 147.2559408  69.9530000
 124.9729408 147.0479408  69.9550000 123.9999408 148.1869408  69.7350000
 137.8569408 125.7969408  66.3200000 138.7739408 125.6119408  66.1180000
 137.3679408 125.4069408  65.5960000 144.8209408 127.4299408  68.6100000
 144.9309408 126.7309408  67.9650000 145.4989408 128.0679408  68.3900000
 129.6499408 131.8419408  67.8760000 130.4039408 132.2779408  68.2730000
 129.2779408 131.3139408  68.5820000 137.8409408 131.3329408  81.0730000
 137.5779408 130.4969408  81.4570000 137.0239408 131.8229408  80.9800000
 136.4069408 123.6289408  79.0480000 137.1099408 124.2789408  79.0450000
 136.1969408 123.5069408  79.9740000 131.6449408 128.1269408  83.6070000
 131.9199408 127.4939408  84.2710000 131.9309408 128.9729408  83.9510000
 138.3389408 128.6359408  77.0160000 138.1949408 129.4509408  77.4970000
 139.2549408 128.4159408  77.1850000 127.8239408 129.7049408  61.9020000
 128.6989408 129.3949408  62.1340000 127.3699408 129.7939408  62.7400000
 133.4879408 128.3599408  77.7820000 132.5719408 128.4729408  78.0380000
 133.7179408 129.1799408  77.3450000 147.1329408 133.4899408  66.5760000
 146.2129408 133.7239408  66.4540000 147.5309408 134.2739408  66.9540000
 125.3919408 129.8369408  81.5440000 124.4879408 130.0839408  81.7380000
 125.8819408 130.6569408  81.5990000 135.6989408 133.6459408  81.5090000
 134.9289408 134.2119408  81.4530000 135.7449408 133.3939408  82.4310000
 125.3759408 125.8509408  64.5400000 125.9379408 126.5929408  64.3170000
 125.1269408 126.0039408  65.4520000 141.4999408 140.8909408  81.6630000
 141.5299408 141.8449408  81.5890000 141.2169408 140.5929408  80.7990000
 136.1989408 132.7839408  84.3270000 136.9519408 132.3809408  84.7590000
 135.5079408 132.1229408  84.3830000 140.3079408 132.6819408  81.5200000
 139.5659408 132.7069408  82.1230000 140.0339408 133.2229408  80.7790000
 143.5869408 131.2759408  63.3410000 142.6949408 131.6219408  63.3230000
 144.1119408 131.9439408  62.9000000 127.8799408 146.0279408  83.7110000
 128.5289408 146.2299408  83.0370000 127.0729408 145.8609408  83.2240000
 138.4169408 134.7709408  80.7260000 138.8399408 135.1919408  81.4750000
 137.5249408 134.5919408  81.0240000 134.9759408 135.1649408  83.9550000
 135.6309408 135.7189408  83.5300000 135.4869408 134.4979408  84.4130000
 140.1269408 137.4139408  77.2570000 140.8569408 138.0169408  77.1180000
 140.2649408 137.0689408  78.1390000 137.7229408 129.0149408  74.5310000
 138.2079408 129.8399408  74.5330000 137.7629408 128.7109408  75.4380000
 137.0589408 124.2909408  63.6940000 137.3229408 123.4279408  64.0130000
 136.3329408 124.1129408  63.0950000 132.1429408 133.0499408  83.4810000
 132.7959408 133.1569408  82.7890000 131.8279408 133.9369408  83.6530000
 129.2999408 124.7489408  76.6790000 128.4779408 124.7659408  76.1890000
 129.0309408 124.7099408  77.5970000 130.2849408 129.8869408  72.5980000
 130.8409408 129.1149408  72.4900000 130.1829408 129.9779408  73.5460000
 148.8309408 127.2719408  62.2880000 148.8699408 126.9779408  63.1980000
 149.5399408 126.7969408  61.8530000 137.8369408 125.8009408  78.3520000
 138.7399408 125.6199408  78.0890000 137.7859408 126.7559408  78.3950000
 132.3099408 137.8379408  78.4750000 131.5999408 137.7869408  77.8350000
 132.9599408 138.4099408  78.0670000 141.5769408 130.0929408  73.5580000
 140.8019408 130.5149408  73.9290000 141.6999408 130.5189408  72.7100000
 125.6739408 143.6199408  60.0820000 126.0949408 143.8689408  60.9050000
 126.3839408 143.2649408  59.5480000 123.0279408 138.2679408  61.4330000
 123.1569408 139.2159408  61.4620000 123.8729408 137.9189408  61.1520000
 125.6639408 128.1749408  78.2520000 126.2629408 127.8789408  78.9380000
 125.1889408 127.3859408  77.9920000 125.9109408 126.2639408  83.1760000
 125.8639408 125.3079408  83.1610000 125.2579408 126.5469408  82.5370000
 123.5549408 132.7819408  63.2750000 122.7219408 132.4139408  63.5720000
 123.4619408 133.7249408  63.4110000 140.1159408 123.8369408  75.0270000
 140.6079408 124.5009408  74.5440000 139.2639408 123.8059408  74.5920000
 129.1499408 149.6889408  82.5040000 129.9349408 150.2339408  82.5540000
 129.1679408 149.3219408  81.6200000 129.0229408 130.0999408  83.4030000
 128.3649408 130.6929408  83.7660000 128.5369408 129.3039408  83.1870000
 122.6359408 129.1879408  72.6550000 122.1249408 129.8089408  73.1730000
 121.9839408 128.6069408  72.2650000 130.1199408 121.7629408  63.4120000
 129.5699408 121.8339408  62.6310000 130.9739408 122.0939408  63.1340000
 144.7679408 126.0699408  77.1460000 143.8289408 126.0299408  76.9640000
 145.1819408 125.7409408  76.3480000 125.1569408 131.4689408  75.1180000
 124.3929408 131.0489408  75.5120000 125.9069408 131.0229408  75.5130000
 136.3049408 137.8459408  78.6500000 136.4699408 138.5339408  78.0040000
 136.6669408 137.0539408  78.2540000 131.4229408 121.4139408  82.3640000
 131.7979408 121.2949408  83.2370000 132.1729408 121.6199408  81.8060000
 124.3739408 122.0349408  82.5920000 125.0449408 122.5869408  82.9950000
 123.7539408 122.6539408  82.2080000 127.8019408 136.5439408  67.0640000
 127.6149408 135.6139408  67.1890000 127.8329408 136.9049408  67.9500000
 132.7309408 132.2139408  78.9580000 132.2289408 131.4239408  78.7610000
 132.6519408 132.7509408  78.1690000 127.4109408 128.2469408  82.5390000
 127.0039408 127.3889408  82.6570000 126.8979408 128.6629408  81.8460000
 138.8269408 123.5309408  82.3500000 138.8589408 122.6169408  82.6340000
 139.3369408 123.5479408  81.5400000 133.0339408 134.4019408  63.2410000
 133.4299408 134.6769408  62.4150000 132.6019408 133.5729408  63.0360000
 134.6579408 121.6439408  84.3280000 135.2989408 121.5509408  85.0330000
 133.8909408 122.0299408  84.7510000 129.2199408 130.8319408  80.8010000
 128.2959408 130.9889408  80.6070000 129.2279408 130.5439408  81.7140000
 128.1889408 137.1529408  83.5900000 129.0689408 137.0679408  83.9560000
 127.9749408 138.0809408  83.6910000 127.2109408 128.0059408  65.3860000
 126.6419408 128.7579408  65.5510000 127.9689408 128.1489408  65.9520000
 141.0649408 129.6399408  62.0140000 141.5329408 129.0169408  62.5690000
 141.5449408 129.6309408  61.1850000 124.8949408 138.8529408  66.4910000
 125.2919408 139.6979408  66.7040000 125.4089408 138.5259408  65.7530000
 120.8779408 149.1329408  61.2170000 121.1779408 149.6449408  60.4660000
 121.0379408 148.2229408  60.9670000 126.9089408 124.5699408  75.4710000
 126.4269408 125.1219408  74.8560000 126.2819408 124.3849408  76.1700000
 136.1519408 136.8349408  66.9130000 135.4469408 136.5409408  66.3350000
 135.7099408 137.0769408  67.7270000 135.4429408 120.1609408  73.2290000
 136.1079408 119.5109408  73.4580000 135.5879408 120.8799408  73.8430000
 144.0269408 139.3799408  81.4100000 144.2849408 138.4959408  81.6720000
 143.1719408 139.5119408  81.8210000 134.3959408 138.1949408  70.7400000
 134.3709408 138.1429408  71.6950000 134.2869408 137.2889408  70.4480000
 124.5679408 132.7609408  83.3450000 124.5269408 133.7069408  83.4870000
 124.8839408 132.6679408  82.4460000 141.5419408 122.2789408  84.3060000
 141.1949408 122.1159408  83.4290000 141.4429408 121.4439408  84.7630000
 134.6329408 143.1429408  70.1660000 134.8209408 143.6079408  69.3500000
 134.7559408 142.2189408  69.9490000 135.3159408 132.0549408  76.3340000
 134.9349408 132.8129408  76.7780000 136.1729408 131.9419408  76.7450000
 142.2929408 137.8109408  83.8080000 142.1829408 137.0259408  84.3450000
 142.7159408 138.4419408  84.3890000 129.7159408 137.2639408  60.6440000
 130.4809408 136.8889408  60.2080000 130.0779408 137.7609408  61.3780000
 127.2109408 131.8149408  84.3940000 126.3699408 132.1359408  84.0660000
 127.5599408 132.5409408  84.9100000 120.1669408 128.8079408  80.3710000
 119.8829408 128.0049408  80.8070000 119.9809408 129.5029408  81.0020000
 131.3649408 129.9299408  78.7550000 130.7509408 129.2719408  78.4300000
 131.2129408 129.9549408  79.7000000 134.3869408 140.9349408  61.0510000
 133.5169408 141.2199408  60.7720000 134.8489408 140.7409408  60.2360000
 130.7769408 129.9669408  75.3550000 131.7099408 130.1599408  75.2610000
 130.7469408 129.1889408  75.9110000 139.8279408 135.7489408  73.0870000
 140.5869408 135.7009408  73.6680000 139.2939408 134.9909408  73.3260000
 148.4329408 121.3169408  77.7720000 148.3759408 120.3929408  78.0160000
 148.3789408 121.7879408  78.6040000 136.9629408 136.6139408  82.6300000
 136.8069408 137.5369408  82.8310000 137.8629408 136.5879408  82.3060000
 146.9299408 131.9079408  61.8610000 146.9209408 132.4829408  62.6270000
 147.6339408 131.2839408  62.0360000 135.8339408 123.3109408  61.4930000
 136.3929408 122.5349408  61.4550000 135.4889408 123.4019408  60.6050000
 120.8749408 123.4179408  83.9600000 120.5559408 122.5409408  83.7490000
 121.6379408 123.5389408  83.3940000 133.8929408 139.7199408  77.2500000
 133.8199408 140.5249408  76.7370000 134.7049408 139.3139408  76.9450000
 130.5189408 127.1779408  75.9270000 130.5439408 126.3239408  76.3590000
 130.1409408 126.9999408  75.0660000 135.9109408 147.6449408  80.9300000
 135.4609408 146.9469408  80.4540000 135.2979408 147.8989408  81.6190000
 127.9469408 127.0969408  79.7360000 127.9239408 126.1409408  79.7090000
 128.7869408 127.3059408  80.1460000 136.8989408 149.9439408  65.6780000
 136.7499408 149.2089408  66.2740000 136.6159408 149.6199408  64.8230000
 129.8299408 147.2289408  65.4010000 128.9329408 147.4469408  65.1470000
 130.3679408 147.5429408  64.6740000 121.1219408 126.0539408  69.6410000
 120.6489408 126.3209408  68.8530000 121.9209408 126.5809408  69.6320000
 131.1519408 142.9069408  80.7830000 131.1849408 141.9589408  80.9060000
 130.5209408 143.0349408  80.0740000 131.0869408 145.7069408  67.3250000
 130.8939408 146.1889408  68.1280000 130.7599408 146.2699408  66.6230000
 122.6749408 138.7829408  70.9760000 123.1839408 139.3299408  71.5740000
 123.0549408 138.9529408  70.1140000 133.9669408 135.5319408  65.7910000
 134.1179408 134.5939408  65.6770000 133.3829408 135.7699408  65.0710000
 122.1679408 124.6769408  72.0900000 121.6919408 125.0179408  71.3330000
 121.8439408 125.1909408  72.8290000 129.7219408 148.0699408  68.6160000
 129.4219408 148.0619408  67.7080000 129.1469408 148.6979408  69.0530000
 131.7279408 140.3879408  81.2710000 131.6209408 139.5149408  80.8940000
 132.3419408 140.2629408  81.9960000 148.0529408 145.8899408  72.2050000
 148.2489408 146.7309408  72.6180000 147.0989408 145.8779408  72.1250000
 133.8599408 126.7389408  62.4700000 133.0679408 127.2019408  62.1940000
 133.5509408 126.0939408  63.1060000 124.9999408 149.5199408  78.2440000
 125.1339408 149.6689408  79.1800000 124.6149408 150.3359408  77.9240000
 130.5059408 139.8669408  66.1100000 129.8559408 139.5139408  65.5030000
 129.9949408 140.3779408  66.7380000 133.0909408 125.1259408  64.6640000
 133.6829408 125.1169408  65.4160000 132.3979408 124.5079408  64.8970000
 123.3269408 144.6049408  79.3680000 124.2059408 144.2289408  79.3230000
 123.4169408 145.4729408  78.9750000 120.0379408 141.4779408  64.6990000
 120.9309408 141.1549408  64.5830000 119.4899408 140.8369408  64.2450000
 135.7609408 145.8819408  64.7460000 135.6409408 145.0999408  64.2060000
 134.9199408 145.9989408  65.1890000 134.2179408 140.3289408  73.1910000
 134.4609408 141.2159408  72.9250000 135.0449408 139.9189408  73.4450000
 137.6079408 141.4719408  81.4500000 137.1129408 142.1989408  81.8280000
 137.2049408 140.6879408  81.8230000 132.8429408 144.9729408  81.9030000
 132.4879408 144.2539408  81.3800000 133.3269408 145.5089408  81.2750000
 124.6779408 142.4899408  76.5850000 125.2769408 143.2359408  76.6160000
 125.2109408 141.7439408  76.8610000 125.7979408 141.3969408  66.7650000
 126.4539408 141.7799408  67.3470000 124.9819408 141.4349408  67.2640000
 137.4849408 147.6719408  67.7400000 136.6389408 147.2889408  67.9700000
 137.8719408 147.0489408  67.1250000 122.3099408 138.7869408  65.5240000
 121.6629408 138.6259408  66.2120000 123.1549408 138.6519408  65.9530000
 134.3059408 148.7819408  67.3720000 134.7559408 148.1469408  67.9280000
 133.9669408 148.2639408  66.6420000 144.3189408 144.7159408  74.1060000
 144.8969408 143.9829408  73.8980000 144.5489408 145.3919408  73.4680000
 126.4959408 138.9039408  62.3800000 125.9039408 139.5189408  61.9470000
 125.9969408 138.0889408  62.4350000 136.4369408 139.0669408  81.2430000
 136.5039408 138.3559408  80.6060000 135.6939408 139.5899408  80.9420000
 127.2649408 143.0889408  63.3920000 127.5729408 143.8519408  62.9040000
 127.6459408 143.1919408  64.2640000 130.3759408 143.4779408  77.1180000
 129.6279408 143.2069408  77.6500000 130.5139408 142.7509408  76.5100000
 135.4449408 145.1009408  74.0140000 136.2459408 145.2109408  73.5020000
 135.0809408 144.2679408  73.7140000 129.1669408 125.4379408  65.7480000
 128.8509408 125.6709408  64.8750000 129.4189408 124.5179408  65.6750000
 124.2729408 140.1469408  72.5690000 123.8439408 140.9559408  72.8460000
 125.0339408 140.0699408  73.1450000 123.2469408 135.4839408  63.2100000
 123.6359408 136.1419408  62.6340000 123.7999408 135.4919408  63.9910000
 124.1789408 137.7809408  68.9290000 124.2309408 138.1619408  68.0530000
 123.5919408 137.0319408  68.8310000 131.1639408 149.3629408  74.0990000
 131.9599408 149.0219408  74.5070000 130.8289408 150.0059408  74.7250000
 131.2709408 149.4239408  60.7540000 131.1439408 149.1009408  59.8620000
 130.7259408 150.2099408  60.8040000 130.1639408 134.3359408  77.9330000
 129.7059408 133.4989408  77.8530000 130.9369408 134.2409408  77.3770000
 126.7049408 144.8669408  67.0240000 127.3139408 144.3839408  66.4660000
 126.0519408 145.2189408  66.4190000 120.7809408 137.7779408  63.0700000
 121.3749408 137.8329408  63.8190000 121.3059408 138.0689408  62.3250000
 126.9129408 146.0559408  73.0170000 126.7609408 146.9919408  73.1450000
 127.8609408 145.9539408  73.1010000 129.9689408 145.5049408  71.5150000
 130.0609408 146.2039408  72.1630000 129.5309408 145.9229408  70.7730000
 132.8559408 122.0519408  69.6080000 133.6339408 121.5559408  69.8640000
 132.6389408 122.5739408  70.3800000 130.9059408 142.2719408  61.9450000
 130.8709408 141.3879408  61.5790000 130.4339408 142.8129408  61.3120000
 120.6149408 134.7429408  62.4330000 119.9859408 135.4539408  62.5520000
 121.4659408 135.1429408  62.6100000 135.8529408 143.8829408  67.9390000
 135.9139408 143.7729408  66.9900000 136.7569408 144.0099408  68.2250000
 127.6779408 135.6369408  78.2270000 127.3809408 135.6059408  79.1360000
 128.4549408 135.0779408  78.2080000 124.3649408 142.5619408  70.9050000
 123.8259408 143.0119408  71.5560000 125.0559408 143.1889408  70.6910000
 131.6299408 143.2589408  71.2250000 131.9139408 143.2529408  70.3110000
 130.9499408 143.9319408  71.2610000 123.3079408 142.3489408  74.1740000
 123.6449408 143.1049408  73.6930000 123.8179408 142.3319408  74.9840000
 140.0859408 123.0319408  61.4180000 140.4329408 122.3479408  60.8450000
 139.2249408 122.7079408  61.6830000 148.1769408 122.4219408  80.1510000
 147.3749408 122.2089408  80.6290000 148.4289408 123.2859408  80.4760000
 139.2209408 148.9019408  69.3070000 138.6819408 149.2899408  69.9960000
 138.5979408 148.6619408  68.6210000 120.7819408 136.6869408  75.9170000
 120.1779408 136.2529408  76.5200000 120.3069408 137.4619408  75.6180000
 126.7389408 144.1779408  69.9850000 126.8389408 145.0859408  70.2700000
 126.8689408 144.2079408  69.0370000 130.4329408 121.4439408  75.7220000
 130.5989408 121.4719408  76.6650000 130.7079408 122.3039408  75.4050000
 123.3309408 139.3729408  78.2010000 122.4419408 139.5659408  78.5000000
 123.8949408 139.6769408  78.9110000 146.3379408 128.5209408  74.7070000
 145.9319408 129.3879408  74.7270000 145.5999408 127.9109408  74.7000000
 123.1059408 141.9459408  68.1800000 123.4189408 142.7029408  68.6760000
 122.1519408 142.0229408  68.2010000 135.4369408 143.2539408  80.0090000
 136.0059408 143.1119408  79.2530000 135.0009408 142.4129408  80.1430000
 127.0619408 141.4499408  69.2770000 127.2629408 142.2119408  69.8210000
 126.5489408 140.8769408  69.8470000 132.0659408 148.8869408  69.7040000
 131.2279408 148.5389408  69.3980000 132.5209408 149.1529408  68.9050000
 131.2699408 146.0949408  76.5260000 131.8939408 146.0249408  75.8040000
 131.2699408 145.2259408  76.9290000 130.8659408 138.4719408  62.7640000
 130.6719408 139.4039408  62.8690000 131.5619408 138.2989408  63.3990000
 133.6439408 120.4429408  61.8470000 132.8629408 120.2199408  61.3410000
 133.6489408 121.3999408  61.8730000 123.1739408 120.5829408  64.5740000
 124.1289408 120.6499408  64.5680000 122.8779408 121.4079408  64.9580000
 129.4209408 141.4549408  67.9740000 128.8169408 141.4819408  68.7160000
 130.2109408 141.8929408  68.2920000 148.8549408 143.9129408  70.4620000
 148.1329408 143.2899408  70.3720000 148.5459408 144.5469408  71.1090000
 129.8059408 135.8759408  81.7940000 128.8959408 136.1509408  81.9020000
 129.7489408 134.9669408  81.5000000 127.9939408 141.3219408  74.6600000
 128.8919408 141.3319408  74.9910000 127.9779408 142.0019408  73.9870000
 145.4639408 145.1709408  68.5830000 144.5769408 145.4189408  68.3240000
 145.9009408 144.9499408  67.7600000 144.4759408 140.8279408  79.0240000
 145.3199408 141.0919408  78.6570000 144.7019408 140.2359408  79.7420000
 132.9509408 121.3049408  72.5350000 133.5739408 120.6049408  72.7320000
 132.1069408 120.9639408  72.8300000 149.8429408 146.8959408  68.9490000
 149.2369408 146.1979408  68.6960000 150.4319408 146.4839408  69.5810000
 133.2739408 146.0209408  65.5640000 133.0779408 145.8549408  66.4860000
 132.5129408 145.6839408  65.0920000 133.9679408 143.1959408  72.7510000
 133.0609408 143.1179408  72.4530000 134.4749408 143.3119408  71.9480000
 127.9659408 143.2009408  84.6000000 128.6309408 142.7009408  84.1270000
 127.9549408 144.0549408  84.1660000 148.8189408 148.9629408  79.5480000
 149.3499408 148.7979408  80.3270000 147.9169408 148.8389408  79.8420000
 127.1999408 122.1849408  79.7970000 127.7519408 121.4189408  79.6400000
 126.4489408 121.8439408  80.2840000 136.6659408 132.2829408  61.1970000
 136.1439408 133.0379408  60.9240000 136.2319408 131.9649408  61.9890000
 131.4439408 135.8639408  83.9440000 132.0879408 136.3889408  83.4680000
 130.7859408 135.6379408  83.2870000 134.5009408 132.8519408  65.8720000
 134.3729408 132.6739408  66.8040000 133.6179408 132.8409408  65.5020000
 130.8959408 139.7499408  69.9370000 130.1039408 139.8069408  70.4710000
 131.6099408 139.9329408  70.5480000 139.0259408 134.6979408  65.6060000
 139.1789408 135.5409408  66.0320000 138.8219408 134.0999408  66.3250000
 126.7689408 148.4729408  74.2330000 127.3599408 149.2059408  74.4070000
 125.9639408 148.6979408  74.6990000 147.3529408 120.3099408  72.8330000
 147.5099408 119.6729408  73.5300000 147.9369408 121.0399408  73.0390000
 132.1129408 138.3489408  67.7370000 131.7449408 138.5769408  68.5910000
 131.5649408 138.8179408  67.1070000 144.6629408 139.5749408  72.4850000
 144.9049408 138.8659408  73.0800000 144.1909408 139.1409408  71.7740000
 121.4539408 149.7109408  75.8930000 121.4329408 150.6619408  76.0040000
 122.2849408 149.5399408  75.4500000 126.8329408 140.5419408  77.8900000
 127.4509408 139.8449408  77.6710000 126.2749408 140.1639408  78.5700000
 145.2199408 134.8659408  61.3530000 145.3179408 134.0859408  60.8060000
 144.4369408 135.3009408  61.0120000 138.8679408 147.6099408  63.3490000
 139.7269408 147.3279408  63.6620000 138.2529408 147.2769408  64.0020000
 128.3579408 124.1779408  61.8600000 128.4489408 124.8209408  62.5630000
 127.5369408 123.7239408  62.0540000 131.2019408 148.7629408  63.4690000
 131.2119408 149.5939408  63.9450000 131.6049408 148.9659408  62.6240000
 126.1329408 143.5059408  80.1000000 126.3269408 143.2889408  79.1880000
 126.9599408 143.8419408  80.4480000 130.2109408 148.4339408  71.9620000
 131.0079408 148.2959408  71.4500000 130.5229408 148.6039408  72.8510000
 121.6809408 148.4499408  67.5820000 122.3499408 147.9409408  67.1260000
 120.8959408 147.9039408  67.5440000 145.9239408 142.7609408  73.2040000
 145.7279408 142.7439408  72.2670000 146.0819408 141.8459408  73.4340000
 139.3099408 146.6769408  74.0320000 139.6109408 146.8749408  74.9190000
 139.3619408 145.7229408  73.9680000 123.3539408 144.7089408  69.0660000
 123.7559408 145.5449408  69.3010000 122.5179408 144.9489408  68.6650000
 121.4129408 146.7549408  60.3960000 122.1889408 147.0679408  59.9310000
 121.2349408 145.8959408  60.0140000 149.6089408 147.8679408  75.3230000
 150.1049408 147.1339408  74.9590000 150.2649408 148.5469408  75.4810000
 142.3659408 134.6299408  68.6880000 141.7399408 134.6659408  69.4110000
 143.1379408 135.0919408  69.0160000 121.5119408 139.0599408  73.6060000
 120.8219408 139.4449408  73.0660000 122.0049408 138.5029408  73.0030000
 123.9449408 146.8669408  78.1460000 123.7629408 146.8199408  77.2080000
 124.4529408 147.6719408  78.2510000 133.2799408 142.0519408  75.6120000
 132.3279408 141.9589408  75.6370000 133.5199408 141.8259408  74.7140000
 132.9559408 141.3659408  66.3640000 133.4859408 141.8059408  65.6990000
 132.4029408 140.7609408  65.8690000 123.4409408 126.1809408  61.9050000
 124.0029408 126.8479408  61.5100000 123.9759408 125.7989408  62.6010000
 137.0119408 143.5979408  60.0990000 137.4669408 144.3679408  60.4400000
 136.1409408 143.9179408  59.8630000 138.2589408 132.5979408  67.4360000
 137.7069408 131.9699408  66.9700000 137.6589408 133.0499408  68.0290000
 120.1369408 123.5589408  65.8370000 119.9919408 122.6449408  65.5950000
 120.0729408 123.5669408  66.7920000 146.3759408 143.1479408  82.1470000
 145.9069408 143.8409408  81.6830000 147.2419408 143.1299408  81.7400000
 132.6159408 142.0489408  84.5270000 132.7129408 141.7699408  85.4380000
 133.1399408 141.4229408  84.0270000 124.7479408 146.4299408  62.0810000
 124.8309408 145.7089408  62.7050000 123.9279408 146.8609408  62.3190000
 129.2759408 146.4629408  74.7030000 129.7309408 146.2569408  75.5190000
 129.1089408 147.4049408  74.7520000 143.3719408 149.3539408  76.9710000
 143.3079408 148.3989408  76.9860000 142.9949408 149.6059408  76.1290000
 136.2559408 143.4489408  82.4580000 135.9049408 143.5529408  81.5740000
 135.4959408 143.5559408  83.0320000 126.9949408 135.9949408  80.7340000
 126.4209408 135.7369408  81.4560000 126.9939408 136.9519408  80.7580000
 136.4109408 147.9309408  76.0400000 136.7929408 148.4529408  76.7440000
 136.9819408 148.0879408  75.2870000 134.1419408 144.1589408  84.0840000
 133.6309408 143.3779408  84.2940000 133.5819408 144.6599408  83.4910000
 133.5379408 136.9969408  82.3460000 134.1009408 136.3869408  82.8230000
 133.4289408 136.5979408  81.4830000 133.4829408 139.4799408  83.5240000
 133.6019408 138.6709408  83.0260000 134.1959408 139.4769408  84.1620000
 125.5179408 140.8639408  60.6340000 124.6129408 140.9029408  60.3240000
 125.8689408 141.7369408  60.4600000 134.6979408 145.7839408  79.6430000
 134.8279408 145.7939408  78.6940000 134.6369408 144.8559408  79.8670000
 125.6269408 145.5319408  82.0670000 126.1349408 145.9269408  81.3580000
 125.2669408 144.7309408  81.6870000 144.5209408 137.0009408  82.3890000
 145.1209408 136.3069408  82.6620000 143.6929408 136.7869408  82.8180000
 130.6369408 141.0749408  75.7480000 131.0509408 140.3259408  76.1760000
 130.8889408 140.9959408  74.8280000 134.6019408 148.8039408  83.5100000
 135.1489408 148.3629408  84.1610000 134.6489408 149.7299408  83.7450000
 137.2359408 145.8399408  84.2300000 137.9919408 145.7569408  83.6490000
 136.6439408 145.1399408  83.9550000 136.3829408 145.0279408  76.5230000
 135.9809408 144.9789408  75.6560000 136.6939408 145.9299408  76.5930000
 119.8979408 145.6919408  82.9550000 119.7849408 144.8959408  83.4740000
 120.8379408 145.7319408  82.7780000 128.7329408 145.2859408  62.7840000
 129.4529408 145.3559408  62.1580000 128.2929408 146.1349408  62.7390000
 146.7709408 123.6649408  82.7270000 146.7729408 122.8369408  83.2070000
 147.3549408 124.2339408  83.2270000 129.9189408 123.5539408  81.8240000
 129.1149408 123.4609408  82.3350000 130.5089408 122.8899408  82.1800000
 128.4839408 132.6569408  72.7750000 128.7579408 133.2109408  72.0450000
 129.2489408 132.1129408  72.9640000 124.8689408 142.0059408  64.4930000
 125.4839408 142.3369408  63.8380000 125.3879408 141.9349408  65.2950000
 121.1839408 143.8679408  62.2820000 121.7039408 143.3719408  61.6500000
 121.6219408 143.7219408  63.1200000 121.2759408 140.9209408  82.3260000
 121.5259408 140.2529408  81.6880000 121.9619408 141.5849408  82.2600000
 127.4129408 146.2019408  80.0570000 127.4249408 146.6489408  79.2110000
 128.2419408 146.4469408  80.4690000 141.6459408 145.8579408  79.2480000
 141.8839408 145.4889408  78.3980000 141.1379408 145.1669408  79.6750000
 146.5009408 143.4099408  63.8900000 147.2679408 143.2959408  63.3290000
 146.1529408 144.2679408  63.6490000 132.1069408 148.3369408  82.1520000
 132.8629408 148.3479408  82.7390000 131.9139408 149.2609408  81.9920000
 126.9049408 149.6589408  84.4020000 127.4049408 149.1249408  85.0190000
 127.5369408 149.8999408  83.7250000 135.8789408 122.1039408  81.6990000
 135.5149408 121.9559408  82.5720000 136.7829408 121.7959408  81.7610000
 128.8949408 141.6709408  79.8570000 128.2309408 141.5909408  79.1720000
 128.9859408 140.7849408  80.2080000 139.3409408 139.3989408  80.3370000
 139.0289408 139.1119408  79.4790000 138.5439408 139.5879408  80.8320000
 133.0649408 121.5539408  80.0000000 133.9649408 121.6039408  80.3230000
 132.9399408 120.6309408  79.7800000 130.1359408 142.0139408  83.1660000
 130.2959408 142.4989408  82.3560000 130.9959408 141.9489408  83.5810000
 138.4869408 128.0279408  61.6070000 139.1999408 128.3819408  62.1380000
 138.0509408 128.7999408  61.2450000 134.4529408 140.9099408  63.7780000
 134.3679408 140.7669408  62.8350000 135.0229408 140.2019408  64.0770000
 127.1399408 147.5469408  77.6840000 126.8289408 147.2759408  76.8200000
 126.5409408 148.2459408  77.9460000 135.7979408 148.7229408  63.2530000
 135.6619408 147.7969408  63.0530000 135.1299408 149.1799408  62.7420000
 129.0859408 121.1759408  61.1750000 128.4019408 120.5059408  61.1510000
 128.6729408 121.9539408  60.8020000 128.0329408 149.1679408  70.5370000
 128.6119408 148.8459408  71.2270000 127.5109408 149.8489408  70.9610000
 132.8329408 136.8609408  73.8650000 132.4649408 135.9809408  73.9370000
 132.1939408 137.3459408  73.3420000 125.5019408 120.1759408  80.8970000
 125.1519408 120.8029408  81.5300000 125.3639408 119.3209408  81.3060000
 134.6709408 127.7959408  65.3550000 135.3629408 127.6749408  64.7050000
 134.3999408 126.9069408  65.5840000 132.2429408 126.3459408  67.8770000
 133.0639408 125.9189408  67.6340000 131.5769408 125.9019408  67.3520000
 144.9609408 135.1169408  66.4150000 144.0719408 135.3439408  66.1410000
 145.4919408 135.8699408  66.1570000 139.3769408 127.5459408  72.7920000
 139.5639408 127.9789408  71.9590000 138.9799408 128.2279408  73.3340000
 149.9389408 132.9329408  80.1570000 149.2409408 133.5489408  79.9330000
 149.5489408 132.0699408  80.0180000 143.4369408 128.0999408  74.6000000
 143.0629408 128.4679408  73.7990000 143.0709408 127.2169408  74.6520000
 147.4789408 123.9939408  70.6530000 147.3369408 124.2939408  69.7560000
 147.7139408 123.0699408  70.5640000 143.8419408 127.9109408  71.1330000
 143.2649408 128.4849408  70.6300000 144.5029408 127.6239408  70.5030000
 144.1399408 121.3499408  70.9420000 143.2239408 121.4689408  71.1920000
 144.1099408 120.7419408  70.2040000 120.0609408 126.7279408  77.5830000
 120.7789408 127.3319408  77.7720000 119.7179408 127.0209408  76.7390000
 139.3879408 132.0239408  61.7080000 138.4449408 132.1189408  61.5730000
 139.5609408 131.0969408  61.5410000 138.6229408 124.8899408  72.5080000
 139.1929408 124.4829408  71.8550000 138.9969408 125.7609408  72.6440000
 148.2209408 143.3229408  74.8680000 147.5639408 143.4529408  74.1850000
 149.0359408 143.1649408  74.3900000 147.7609408 122.7849408  63.9490000
 148.2159408 122.0179408  63.6010000 147.0409408 122.9349408  63.3370000
 135.8699408 127.0169408  60.6600000 135.2029408 126.8519408  61.3270000
 136.4569408 127.6569408  61.0610000 145.9399408 125.4359408  74.7680000
 146.1589408 125.8389408  73.9280000 145.7629408 124.5199408  74.5560000
 145.4509408 126.9699408  65.4990000 144.8859408 126.2069408  65.3780000
 145.7639408 127.1789408  64.6180000 120.4629408 142.8909408  73.2580000
 120.2129408 141.9829408  73.0880000 121.3599408 142.8359408  73.5870000
 134.7979408 131.2589408  80.4950000 134.1209408 131.7319408  80.0110000
 135.3779408 131.9449408  80.8280000 138.4659408 143.8039408  69.1880000
 138.8379408 144.6159408  68.8460000 138.9149408 143.1109408  68.7040000
 136.7079408 127.0059408  63.8860000 137.1969408 127.5149408  63.2390000
 136.7849408 126.0999408  63.5860000 125.6159408 123.9159408  77.9620000
 126.1299408 123.4149408  78.5940000 125.1099408 123.2559408  77.4870000
 145.2969408 125.6169408  79.7390000 146.1719408 125.2819408  79.5430000
 144.9219408 125.8239408  78.8830000 125.4309408 128.9249408  73.3460000
 124.5449408 128.8439408  73.6980000 125.4069408 129.7229408  72.8170000
 149.5329408 120.6999408  63.3760000 150.1959408 120.7629408  62.6890000
 149.1429408 119.8339408  63.2540000 139.1209408 131.3209408  73.8360000
 138.7309408 131.3989408  72.9650000 138.7629408 132.0599408  74.3270000
 143.4509408 136.6139408  77.9200000 143.0099408 137.2459408  77.3520000
 142.8429408 136.4799408  78.6470000 121.2429408 145.3819408  71.0890000
 121.8839408 144.7989408  70.6820000 120.4409408 144.8619408  71.1370000
 120.5589408 123.4369408  62.1060000 120.9039408 123.9419408  61.3700000
 119.6199408 123.3699408  61.9320000 145.4529408 143.0009408  66.3470000
 146.1639408 142.5919408  66.8410000 145.8259408 143.1649408  65.4810000
 139.8289408 132.1619408  64.8400000 140.2879408 132.3219408  65.6640000
 139.5549408 133.0299408  64.5450000 145.5609408 131.1319408  75.4750000
 145.1189408 130.5969408  76.1340000 144.8589408 131.6419408  75.0700000
 121.6959408 134.5629408  65.6540000 121.0739408 134.5129408  64.9270000
 121.7619408 133.6639408  65.9750000 146.7429408 123.6139408  77.8620000
 146.4659408 124.0829408  77.0750000 146.0469408 122.9769408  78.0200000
 141.6259408 139.4869408  61.2030000 142.4039408 139.0829408  61.5860000
 141.3859408 140.1789408  61.8190000 149.2179408 143.7659408  65.8380000
 149.3659408 144.3189408  65.0710000 149.4309408 142.8809408  65.5410000
 141.2669408 120.7559408  68.5830000 141.3999408 121.0999408  69.4660000
 140.5919408 120.0849408  68.6870000 147.0209408 120.6149408  83.3560000
 146.1119408 120.3729408  83.1770000 147.4589408 119.7839408  83.5400000
 147.0549408 140.3509408  73.5330000 146.2059408 140.0659408  73.1960000
 147.4329408 139.5649408  73.9270000 143.3629408 125.0449408  71.8150000
 143.7649408 125.8809408  71.5770000 144.1039408 124.4649408  71.9930000
 144.9759408 121.0289408  80.1130000 144.6729408 121.3969408  79.2830000
 144.4759408 121.4979408  80.7810000 142.5319408 143.9129408  76.2690000
 143.3199408 143.8259408  76.8050000 142.8589408 144.0669408  75.3830000
 146.3219408 127.4929408  83.9420000 146.3019408 126.7529408  84.5480000
 147.1049408 127.9849408  84.1900000 120.1739408 131.8329408  71.6060000
 120.4409408 131.6049408  72.4960000 120.8999408 132.3529408  71.2630000
 145.7369408 139.1459408  68.1800000 144.8499408 139.1279408  68.5390000
 146.1869408 138.4239408  68.6170000 136.6539408 129.5689408  67.1000000
 136.2859408 129.1019408  66.3490000 137.5579408 129.2609408  67.1550000
 138.3429408 145.7469408  66.0430000 138.8659408 144.9999408  65.7510000
 137.5969408 145.7659408  65.4440000 124.7929408 145.8129408  65.2480000
 124.3529408 146.6369408  65.4600000 124.0799408 145.1949408  65.0880000
 143.2419408 143.1659408  70.4920000 142.9709408 143.7249408  69.7630000
 142.5509408 142.5069408  70.5570000 145.7379408 146.5139408  76.0000000
 145.5399408 145.6189408  75.7260000 144.8859408 146.8929408  76.2160000
 120.0309408 126.3349408  67.2890000 119.4529408 125.8939408  66.6650000
 120.7089408 126.7369408  66.7450000 125.4109408 121.6389408  74.1010000
 126.3529408 121.5459408  73.9540000 125.1199408 122.2449408  73.4200000
 132.0409408 123.7889408  60.3090000 131.4489408 124.5119408  60.1020000
 132.7159408 123.8299408  59.6310000 144.4599408 122.0869408  77.5660000
 144.6979408 122.1839408  76.6440000 143.9199408 121.2969408  77.5930000
 128.5499408 124.3989408  79.4280000 129.1569408 124.0959408  80.1040000
 127.8149408 123.7869408  79.4750000 141.2339408 121.7299408  71.0500000
 141.0569408 121.7479408  71.9900000 141.0979408 122.6329408  70.7630000
 142.1169408 126.2239408  76.4610000 141.5759408 126.8179408  76.9810000
 141.6809408 126.1839408  75.6100000 147.9949408 121.5439408  69.2960000
 147.6689408 120.7739408  69.7610000 147.5859408 121.4939408  68.4320000
 124.1849408 139.2609408  75.5620000 123.2749408 139.4589408  75.3410000
 124.2369408 139.3929408  76.5080000 141.5719408 136.0879408  79.4610000
 141.2589408 136.5549408  80.2350000 142.0279408 135.3219408  79.8100000
 144.5889408 132.8039408  78.0590000 145.3309408 132.2919408  77.7360000
 144.9889408 133.5189408  78.5550000 149.8669408 142.4849408  83.7190000
 150.5199408 142.0109408  83.2050000 149.1229408 142.5889408  83.1250000
 142.9719408 149.7709408  66.6800000 142.3179408 150.1079408  67.2920000
 143.6439408 149.3789408  67.2390000 132.1399408 127.4559408  72.2220000
 133.0799408 127.4309408  72.0430000 131.9669408 126.6499408  72.7080000
 142.2569408 132.3619408  71.4830000 141.7519408 133.1539408  71.2990000
 142.2079408 131.8529408  70.6740000 147.9939408 128.9349408  78.7130000
 148.8849408 128.7869408  79.0320000 147.4419408 128.4079408  79.2910000
 122.6369408 128.9269408  68.6340000 123.0599408 129.1289408  69.4690000
 121.7709408 129.3279408  68.7010000 121.9669408 128.2519408  78.4270000
 122.8179408 128.6559408  78.5950000 121.4089408 128.5619408  79.1400000
 147.5039408 125.9579408  72.6760000 147.6349408 125.1329408  72.2080000
 147.4329408 126.6169408  71.9850000 126.0659408 123.5049408  63.3350000
 125.7129408 124.3689408  63.5490000 125.3759408 123.0859408  62.8200000
 140.1629408 123.2489408  67.1740000 140.7889408 122.6829408  67.6270000
 139.4289408 123.3299408  67.7820000 136.8479408 149.6619408  70.6200000
 136.3209408 149.0759408  71.1630000 136.2789408 149.8849408  69.8840000
 125.8869408 130.2809408  65.3640000 125.6359408 130.8369408  66.1020000
 125.8729408 130.8659408  64.6070000 142.0509408 147.8479408  81.3780000
 142.2919408 147.3129408  80.6220000 142.4079408 148.7149408  81.1820000
 146.0049408 148.4509408  80.5770000 145.3879408 147.8689408  80.1320000
 145.6789408 149.3319408  80.3920000 135.9519408 135.9449408  60.6750000
 135.0699408 135.6069408  60.8280000 136.3909408 135.2529408  60.1800000
 142.1649408 127.7679408  68.6350000 143.0789408 127.4839408  68.6030000
 142.1279408 128.5239408  68.0490000 144.3869408 130.8979408  67.2380000
 144.6949408 131.3449408  68.0260000 145.0989408 131.0059408  66.6070000
 140.4669408 147.5979408  76.5020000 140.0149408 148.4079408  76.7400000
 139.9129408 146.9009408  76.8520000 137.1799408 144.4859408  71.5940000
 137.1339408 144.0919408  70.7230000 137.8769408 145.1389408  71.5260000
 147.1109408 127.9229408  70.7590000 146.6699408 128.6599408  71.1820000
 147.2859408 128.2279408  69.8680000 144.4309408 128.2329408  60.1660000
 144.9999408 128.8329408  59.6840000 144.9499408 127.9689408  60.9260000
 147.6649408 137.8339408  80.4340000 147.0099408 137.9209408  81.1270000
 147.7929408 138.7259408  80.1110000 140.4459408 125.7249408  65.9510000
 140.6899408 124.9389408  66.4390000 141.2809408 126.0999408  65.6680000
 124.0989408 137.2339408  80.9040000 123.5579408 137.6299408  80.2210000
 124.7849408 137.8809408  81.0720000 143.0409408 145.6989408  67.7480000
 142.2169408 146.1149408  67.4950000 143.0589408 144.8799408  67.2530000
 135.0709408 123.1099408  71.9730000 135.9309408 122.7019408  71.8700000
 134.5769408 122.4959408  72.5170000 121.2549408 126.8109408  74.1630000
 120.3669408 126.7379408  74.5100000 121.5479408 127.6809408  74.4330000
 121.2039408 138.3319408  68.1590000 121.7869408 138.4599408  68.9080000
 120.4139408 137.9419408  68.5330000 130.8509408 138.0429408  80.5640000
 131.5169408 137.8769408  79.8970000 130.6929408 137.1879408  80.9640000
 145.3289408 133.5029408  71.5810000 145.0329408 134.2309408  72.1270000
 146.1189408 133.1829408  72.0170000 147.1119408 147.8559408  74.3000000
 146.6299408 147.3489408  74.9530000 148.0099408 147.8809408  74.6300000
 144.7879408 122.1149408  65.8990000 144.1839408 121.3719408  65.9120000
 145.6579408 121.7159408  65.9040000 139.4179408 135.1679408  76.0930000
 140.2329408 134.6729408  76.0060000 139.6999408 136.0539408  76.3210000
 147.7659408 133.5989408  63.8470000 147.7389408 133.8419408  64.7720000
 147.9009408 134.4269408  63.3850000 125.1689408 134.5189408  76.3780000
 125.8409408 134.4369408  77.0540000 124.4199408 134.9079408  76.8290000
 144.5049408 123.7859408  68.3370000 144.6659408 123.1259408  67.6630000
 145.3689408 123.9629408  68.7110000 147.8919408 135.9599408  61.8140000
 147.0629408 135.4949408  61.6950000 148.2699408 136.0039408  60.9360000
 141.4209408 125.9589408  73.7260000 140.7449408 126.4539408  73.2630000
 142.0389408 125.6999408  73.0420000 124.4059408 130.8699408  61.0480000
 123.6999408 131.4429408  61.3470000 125.1239408 131.0339408  61.6600000
 137.9489408 137.1749408  71.2960000 137.9059408 136.2389408  71.0990000
 138.8179408 137.2979408  71.6800000 145.4809408 131.9639408  69.4060000
 145.1199408 132.5119408  70.1030000 146.2799408 131.5939408  69.7810000
 147.2379408 124.9699408  68.0610000 147.3909408 125.8909408  68.2740000
 147.5609408 124.8749408  67.1650000 136.7859408 138.4209408  61.6810000
 136.7219408 137.5299408  61.3370000 137.4129408 138.8559408  61.1040000
 142.8489408 133.5719408  79.9600000 143.5609408 133.2709408  79.3950000
 142.1069408 133.0129408  79.7290000 143.2589408 120.4689408  74.2250000
 143.7039408 119.7619408  73.7580000 143.9489408 121.1049408  74.4120000
 128.5139408 138.9249408  64.6940000 128.4449408 137.9949408  64.9100000
 127.8739408 139.0569408  63.9950000 120.9149408 132.1979408  63.5130000
 120.7669408 132.8599408  62.8380000 120.2449408 131.5339408  63.3490000
 136.2619408 125.6629408  71.8050000 137.1559408 125.3529408  71.9450000
 135.7269408 124.8699408  71.8260000 145.2609408 122.5219408  75.1500000
 146.1599408 122.1979408  75.2140000 145.1129408 122.6349408  74.2110000
 146.0369408 129.7699408  72.4210000 146.3529408 129.1019408  73.0300000
 145.0999408 129.8379408  72.6050000 143.0209408 128.4339408  63.5050000
 143.2149408 129.3699408  63.4500000 143.4379408 128.1499408  64.3190000
 138.3969408 121.7669408  64.5070000 138.1719408 121.0319408  65.0770000
 139.3529408 121.8069408  64.5340000 149.4079408 140.4649408  72.4830000
 148.5159408 140.4729408  72.8300000 149.2959408 140.4509408  71.5330000
 139.9099408 128.3669408  70.0660000 139.9099408 129.2509408  69.6990000
 140.6139408 127.9149408  69.6030000 142.3429408 137.8229408  73.7280000
 142.4789408 138.5569408  74.3260000 141.4959408 137.9999408  73.3180000
 138.5539408 138.9259408  84.6820000 138.7939408 138.2999408  85.3660000
 139.3529408 139.4279408  84.5250000 120.9789408 131.7839408  66.4660000
 120.8059408 131.5689408  65.5490000 120.8379408 130.9619408  66.9360000
 138.5449408 126.2349408  68.9460000 138.6869408 126.3049408  68.0020000
 138.8589408 127.0669408  69.2990000 137.5829408 122.1169408  71.6990000
 137.5359408 121.9249408  72.6360000 137.4419408 121.2719408  71.2740000
 143.0879408 126.0449408  62.2860000 143.1179408 126.9629408  62.5550000
 142.5769408 126.0479408  61.4770000 139.4299408 149.0179408  60.8690000
 140.3869408 149.0099408  60.8630000 139.1899408 148.4979408  61.6360000
 149.4029408 141.3029408  76.8030000 149.1189408 142.1149408  76.3830000
 150.2919408 141.4879408  77.1050000 127.9229408 120.9289408  67.0610000
 128.3859408 121.4039408  67.7510000 127.6119408 121.6119408  66.4670000
 146.0629408 126.2019408  62.8730000 146.7759408 126.4759408  62.2960000
 145.4759408 125.7009408  62.3070000 145.4119408 140.8149408  61.5320000
 145.4999408 140.9999408  60.5970000 146.2239408 140.3649408  61.7650000
 148.3659408 125.4669408  79.3010000 148.8039408 125.9929408  78.6320000
 148.0599408 124.6899408  78.8330000 140.9419408 124.3839408  77.7550000
 140.5819408 123.9059408  77.0080000 141.5239408 125.0359408  77.3640000
 149.4049408 129.7769408  61.2160000 149.7829408 129.6169408  60.3520000
 148.8879408 128.9919408  61.4010000 141.4199408 133.2069408  84.2540000
 141.6209408 132.3409408  84.6100000 141.2789408 133.0559408  83.3200000
 149.1759408 130.3779408  82.4850000 148.2839408 130.5879408  82.2080000
 149.0939408 130.1619408  83.4140000 147.5159408 131.6489408  78.8270000
 147.5849408 130.6959408  78.7670000 147.6049408 131.8379408  79.7610000
 148.1189408 133.0759408  83.9840000 148.7619408 132.6759408  84.5710000
 147.4529408 133.4369408  84.5690000 141.7639408 133.3609408  62.3840000
 141.7739408 133.7069408  61.4920000 140.9559408 132.8499408  62.4340000
 148.0309408 145.7699408  60.2010000 147.6519408 146.3839408  59.5710000
 148.7909408 146.2309408  60.5560000 122.9169408 130.2559408  82.9200000
 122.3259408 130.8239408  82.4250000 123.4999408 130.8599408  83.3800000
 141.1939408 124.9999408  84.4080000 140.3499408 125.2639408  84.7730000
 141.2559408 124.0639408  84.5980000 148.7599408 148.1839408  63.0480000
 148.8759408 147.2849408  63.3560000 149.4779408 148.3219408  62.4310000
 122.6489408 127.0719408  83.3300000 122.9159408 127.8839408  82.8980000
 122.1039408 126.6239408  82.6820000 142.4329408 144.4709408  60.8190000
 141.6569408 144.3989408  61.3750000 142.5059408 143.6149408  60.3970000
 147.0089408 127.7539408  80.9100000 147.1639408 127.5669408  81.8360000
 146.1749408 127.3249408  80.7160000 139.5569408 139.2589408  64.7920000
 139.8279408 138.5009408  64.2750000 139.5719408 139.9889408  64.1730000
 146.9399408 130.5709408  65.5480000 147.2969408 131.4359408  65.7460000
 147.5429408 130.2049408  64.9000000 142.1869408 127.3489408  83.2340000
 142.6329408 127.2299408  82.3960000 141.9849408 126.4599408  83.5270000
 143.0549408 146.8219408  75.9560000 142.1179408 146.8199408  76.1500000
 143.1779408 146.0819408  75.3610000 146.0829408 134.9759408  82.9120000
 146.8299408 134.5689408  82.4730000 146.1679408 134.7089408  83.8270000
 121.7139408 124.7479408  64.2270000 121.3929408 124.3309408  63.4270000
 121.0859408 124.4889408  64.9010000 146.7119408 148.8939408  61.2240000
 147.5319408 148.5429408  61.5710000 146.3319408 149.3829408  61.9540000
 144.2559408 143.5429408  78.3680000 144.2759408 142.7569408  78.9150000
 145.1489408 143.6239408  78.0320000 144.1759408 138.5089408  61.7660000
 144.5339408 139.3739408  61.5650000 144.8279408 138.1069408  62.3410000
 145.2449408 135.1359408  79.2390000 144.6809408 135.3399408  79.9860000
 145.0279408 135.8009408  78.5860000 147.8889408 122.9389408  60.7890000
 147.1389408 122.3659408  60.9500000 147.5709408 123.8159408  61.0000000
 137.5889408 125.9449408  81.8650000 137.9269408 125.0509408  81.9150000
 138.2399408 126.4199408  81.3480000 140.0679408 126.6019408  80.6770000
 140.4109408 125.7399408  80.4420000 140.8469408 127.1369408  80.8290000
 149.4139408 123.1659408  76.0720000 149.2369408 122.3849408  76.5970000
 148.9069408 123.8589408  76.4960000 137.8799408 127.6249408  84.1220000
 137.7579408 126.6759408  84.0920000 137.0159408 127.9709408  84.3480000
 144.0009408 124.7069408  65.0710000 143.8849408 124.5229408  64.1390000
 144.2479408 123.8649408  65.4530000 148.6979408 124.9809408  83.9730000
 149.2289408 125.6649408  84.3820000 149.2709408 124.2149408  83.9480000
 129.8899408 131.8059408  77.1790000 130.2009408 131.2239408  77.8720000
 130.1229408 131.3559408  76.3660000 122.2539408 135.9619408  84.7120000
 121.4929408 135.4689408  84.4070000 123.0069408 135.4519408  84.4130000
 140.0029408 129.2039408  83.4090000 140.8009408 128.6759408  83.4560000
 139.3039408 128.6049408  83.6730000 143.6059408 132.7209408  74.1930000
 143.3069408 132.6279408  73.2890000 143.8659408 133.6389408  74.2670000
 143.0969408 127.0939408  80.7320000 143.5719408 127.7899408  80.2780000
 143.5829408 126.2959408  80.5220000 141.2829408 124.2129408  70.2370000
 142.1709408 124.4309408  70.5200000 140.9569408 125.0169408  69.8310000
 125.2779408 131.5559408  67.5480000 124.8449408 130.9229408  68.1220000
 125.5749408 132.2489408  68.1370000 126.0519408 126.0389408  72.9900000
 126.7619408 125.9259408  72.3580000 125.9799408 126.9859408  73.1040000
 146.9689408 146.1229408  82.1750000 147.8909408 146.2139408  82.4190000
 146.8059408 146.8519408  81.5770000 120.5089408 129.7659408  73.8980000
 119.8269408 129.7809408  74.5700000 120.2249408 129.0889408  73.2830000
 142.0069408 133.9469408  76.1180000 142.6479408 133.3789408  75.6900000
 142.4899408 134.3509408  76.8390000 123.1369408 135.9089408  77.4420000
 123.2879408 136.7359408  77.8990000 122.3239408 136.0479408  76.9560000
 144.1139408 123.7159408  81.1230000 144.5879408 124.4759408  80.7840000
 144.5419408 123.5189408  81.9560000 133.7419408 126.4529408  75.6390000
 134.2449408 126.8479408  74.9270000 133.4279408 127.1979408  76.1520000
 123.9139408 134.3159408  80.0960000 123.3239408 135.0459408  80.2810000
 123.8699408 134.2069408  79.1460000 139.3529408 129.0949408  79.9650000
 138.9699408 129.8979408  80.3180000 139.1119408 128.4159408  80.5960000
 137.2159408 122.2419408  74.2630000 137.4569408 121.6839408  75.0030000
 136.9959408 123.0849408  74.6600000 126.1759408 123.6459408  83.8610000
 127.0319408 123.4339408  84.2340000 125.6269408 123.8449408  84.6190000
 120.6509408 134.1239408  83.5250000 119.7119408 133.9479408  83.5810000
 120.9809408 133.4709408  82.9080000 122.0539408 132.5049408  81.6720000
 122.7779408 133.0489408  81.3630000 121.3189408 132.7389408  81.1060000
 147.4739408 128.2959408  67.3770000 147.0789408 129.0559408  66.9490000
 147.4529408 127.6089408  66.7110000 124.6389408 128.2059408  60.3610000
 124.5499408 129.1419408  60.5400000 125.5799408 128.0399408  60.4160000
 123.5789408 125.2939408  74.7230000 124.2869408 125.7469408  74.2640000
 122.8469408 125.9109408  74.7040000 134.3679408 128.5949408  80.4910000
 134.4269408 129.5469408  80.5680000 134.3979408 128.4279408  79.5490000
 122.4339408 149.4479408  81.3220000 121.7669408 148.7629408  81.3040000
 122.1439408 150.0829408  80.6670000 139.6399408 137.0629408  81.6660000
 140.2749408 137.2579408  82.3550000 139.4069408 137.9179408  81.3040000
 147.1349408 132.3819408  81.4320000 146.3539408 131.8949408  81.6950000
 147.7049408 132.3559408  82.2000000 121.7099408 124.5589408  77.3620000
 121.2679408 124.1129408  76.6390000 121.0809408 125.2169408  77.6580000
 123.7859408 123.1389408  65.5410000 124.7399408 123.2159408  65.5740000
 123.5029408 123.8839408  65.0110000 142.3099408 130.3559408  81.7640000
 141.7209408 131.1059408  81.6740000 141.7629408 129.6659408  82.1410000
 148.6129408 140.5529408  80.3810000 149.2029408 140.8629408  81.0670000
 148.5069408 141.3039408  79.7970000 138.5159408 145.7009408  60.7170000
 138.6129408 146.6029408  61.0230000 139.1969408 145.5999408  60.0510000
 144.3199408 135.3179408  73.4330000 143.7379408 136.0469408  73.2200000
 144.8819408 135.6559408  74.1310000 142.5469408 135.5769408  64.2880000
 141.8889408 136.0879408  63.8160000 142.4899408 134.7009408  63.9070000
 139.5539408 120.0589408  77.2370000 139.8519408 120.3489408  76.3750000
 138.6799408 120.4369408  77.3290000 144.5779408 146.1839408  79.7680000
 145.3119408 145.7339408  79.3490000 143.8019408 145.8429408  79.3220000
 141.9709408 149.7309408  64.2900000 141.4919408 150.5529408  64.3860000
 142.2929408 149.5359408  65.1700000 139.7779408 143.9979408  73.5600000
 140.2779408 144.1409408  72.7560000 140.3799408 143.5269408  74.1360000
 136.2369408 122.5929408  67.0360000 136.4979408 121.7169408  66.7530000
 137.0569408 123.0199408  67.2820000 137.8549408 123.6489408  68.8230000
 138.0219408 124.5789408  68.9790000 137.6949408 123.2839408  69.6930000
 140.3289408 144.1079408  62.8240000 139.6049408 144.5969408  62.4350000
 140.2499408 144.2699408  63.7640000 141.6989408 120.0119408  79.4060000
 142.3109408 119.7979408  78.7010000 140.9559408 120.4209408  78.9620000
 147.1489408 141.4149408  68.1260000 147.0169408 141.9989408  68.8730000
 146.3659408 140.8649408  68.1090000 141.1139408 122.1109408  64.7390000
 141.1109408 122.6599408  65.5240000 141.5609408 122.6399408  64.0780000
 142.0079408 130.1399408  76.2200000 141.9829408 130.3189408  75.2790000
 142.8879408 129.7949408  76.3750000 136.6089408 138.0909408  73.3550000
 136.7289408 137.5009408  72.6110000 137.4469408 138.5439408  73.4390000
 147.8639408 137.4319408  69.3610000 147.7469408 137.2979408  70.3010000
 148.3079408 138.2779408  69.2930000 121.0329408 145.6039408  73.9710000
 120.2089408 145.2399408  74.2930000 121.2309408 145.0919408  73.1870000
 121.9339408 149.6879408  78.6420000 122.2469408 148.7839408  78.6550000
 121.5109408 149.7829408  77.7880000 121.1559408 138.4609408  80.0400000
 120.2709408 138.7809408  79.8660000 121.0349408 137.5459408  80.2950000
 122.0799408 148.3339408  63.5080000 121.6479408 148.7749408  62.7770000
 122.4669408 149.0439408  64.0210000 137.4589408 139.6149408  66.9330000
 136.5709408 139.2699408  67.0270000 137.7209408 139.3639408  66.0470000
 146.6749408 137.5639408  73.5590000 146.2789408 137.7839408  74.4030000
 146.8119408 136.6169408  73.5990000 139.9319408 143.5469408  65.4520000
 139.4589408 142.7149408  65.4690000 140.8459408 143.3059408  65.6030000
 143.0439408 141.6259408  73.4910000 142.5689408 141.6099408  72.6600000
 143.9519408 141.4399408  73.2520000 141.5259408 147.0239408  63.9340000
 141.8329408 146.7029408  63.0860000 141.8009408 147.9409408  63.9570000
 142.5659408 143.1829408  66.2490000 142.5139408 142.3989408  66.7960000
 143.4839408 143.2299408  65.9820000 122.7359408 143.2419408  81.7040000
 122.8889408 143.6109408  80.8350000 122.5469408 143.9999408  82.2570000
 145.2289408 123.2469408  72.4100000 144.8559408 122.6399408  71.7710000
 146.0849408 123.4789408  72.0500000 123.0529408 146.7679408  75.5720000
 122.4119408 146.2939408  75.0430000 123.1159408 147.6289408  75.1590000
 144.1119408 141.8259408  63.7350000 144.7569408 142.4489408  64.0690000
 144.4369408 141.5849408  62.8680000 145.3229408 136.5199408  63.7300000
 145.4299408 135.8639408  63.0410000 144.4889408 136.2979408  64.1450000
 145.6729408 140.8899408  83.2500000 145.9379408 141.6929408  82.8020000
 145.0279408 140.4909408  82.6670000 148.0719408 135.0429408  74.1250000
 148.3279408 134.1539408  73.8810000 148.7059408 135.6059408  73.6790000
 141.4969408 137.6769408  68.9910000 140.6869408 137.9649408  69.4120000
 141.2069408 137.1699408  68.2330000 141.3089408 141.2979408  70.9070000
 140.3719408 141.3809408  71.0840000 141.3559408 140.9219408  70.0280000
 142.7679408 139.3119408  77.3790000 142.3009408 140.0629408  77.0110000
 143.4259408 139.6989408  77.9570000 139.7129408 141.5399408  67.5910000
 139.1179408 140.8719408  67.2500000 140.5109408 141.0599408  67.8100000
 143.7039408 137.7479408  70.5130000 144.1529408 136.9339408  70.2860000
 142.9529408 137.7799408  69.9200000 147.4709408 145.8359408  66.5070000
 147.7579408 144.9329408  66.6370000 147.3959408 145.9299408  65.5570000
 147.1539408 145.2229408  78.8610000 147.2309408 144.5909408  78.1470000
 147.9429408 145.7599408  78.7930000 148.9979408 135.2499408  77.3840000
 148.6679408 135.0439408  78.2580000 148.5579408 134.6249408  76.8080000
 137.0249408 142.7099408  77.6690000 136.8809408 142.0149408  77.0260000
 136.7759408 143.5139408  77.2140000 145.5159408 122.1409408  62.2740000
 144.6969408 122.6339408  62.2290000 145.2789408 121.3189408  62.7030000
 147.8379408 136.4779408  64.9610000 147.1649408 136.4449408  64.2810000
 148.2269408 137.3489408  64.8720000 138.1619408 131.4479408  78.1310000
 138.1129408 131.6889408  79.0560000 139.0279408 131.7449408  77.8520000
 131.7949408 124.1809408  75.4660000 131.0579408 124.3869408  76.0420000
 132.4969408 124.7619408  75.7580000 144.6279408 149.7129408  63.2650000
 143.6809408 149.5999408  63.3410000 144.9819408 149.3039408  64.0550000
 144.1549408 148.4689408  68.6710000 144.9869408 147.9959408  68.6860000
 143.5239408 147.8559408  69.0480000 147.6299408 148.3429408  67.5860000
 147.5669408 147.3909408  67.5050000 147.5549408 148.5079408  68.5260000
 146.7179408 143.2369408  77.1170000 147.0469408 143.5299408  76.2670000
 146.4409408 142.3329408  76.9690000 148.6429408 143.4169408  62.1320000
 149.5469408 143.7219408  62.2000000 148.2299408 144.0239408  61.5180000
 138.1019408 149.3339408  73.8490000 138.8249408 149.9569408  73.9170000
 138.5209408 148.5029408  73.6270000 120.8829408 135.8929408  80.9960000
 121.0199408 135.6469408  81.9110000 120.0429408 135.4959408  80.7640000
 149.7119408 147.0349408  78.1520000 149.5509408 147.4989408  77.3300000
 149.2639408 147.5589408  78.8150000 127.1339408 143.6299408  77.5170000
 126.9599408 144.4419408  77.0430000 127.4829408 143.0339408  76.8540000
 145.3029408 146.0099408  71.7730000 145.0519408 145.5969408  70.9470000
 144.6769408 146.7259408  71.8830000 135.4609408 143.4619408  63.0360000
 135.9439408 143.2799408  62.2300000 135.3659408 142.6069408  63.4560000
 133.5109408 147.9189408  75.3630000 134.4469408 147.8499408  75.5500000
 133.2639408 147.0499408  75.0470000 145.1669408 145.1589408  61.8110000
 144.2559408 144.8679408  61.8270000 145.3879408 145.2049408  60.8810000
 141.1539408 147.1659408  66.5480000 141.4189408 146.9389408  65.6570000
 141.5359408 148.0299408  66.7000000 136.0469408 124.5639408  75.7710000
 136.0809408 124.5099408  76.7260000 135.4529408 125.2939408  75.5940000
 122.8799408 147.4629408  72.2670000 122.0239408 147.0379408  72.2150000
 123.2679408 147.3299408  71.4030000 148.6919408 139.2009408  63.8620000
 149.5599408 138.8229408  63.7170000 148.1619408 138.8679408  63.1380000
 147.3199408 138.8899408  61.5420000 147.8129408 139.1749408  60.7720000
 147.3469408 137.9339408  61.5040000 120.1709408 145.8719408  63.6420000
 120.6029408 145.3299408  62.9810000 120.8439408 146.4929408  63.9200000
 141.9069408 140.2649408  68.2860000 141.7919408 139.3209408  68.3890000
 142.4119408 140.3589408  67.4790000 140.8209408 145.7819408  71.5460000
 140.6039408 145.9449408  70.6280000 140.7959408 146.6459408  71.9560000
 147.3569408 121.1799408  66.2670000 147.6309408 121.6629408  65.4870000
 148.0139408 120.4909408  66.3660000 138.4929408 140.8929408  71.3400000
 138.2899408 140.2629408  70.6490000 137.8709408 141.6069408  71.2050000
 147.5929408 148.9229408  70.4380000 147.4519408 149.3709408  71.2720000
 148.5019408 148.6269408  70.4740000 129.8979408 148.3239408  77.5680000
 130.5479408 147.6229408  77.5210000 129.0609408 147.8869408  77.4100000
 120.6229408 145.0849408  79.8260000 121.5509408 144.8679408  79.9130000
 120.5909408 145.7159408  79.1080000 149.5049408 129.6089408  63.9390000
 149.2369408 129.4409408  63.0360000 150.3389408 129.1489408  64.0320000
 144.9399408 148.5519408  72.8940000 145.6679408 148.0659408  73.2810000
 145.3499408 149.3119408  72.4820000 146.2609408 140.5759408  76.5330000
 145.9599408 139.7359408  76.1870000 147.1519408 140.4039408  76.8380000
 120.1289408 120.2789408  66.1440000 120.1339408 120.2069408  65.1890000
 120.6739408 119.5509408  66.4420000 140.1059408 146.3139408  68.9570000
 140.3829408 146.3689408  68.0430000 139.8789408 147.2129408  69.1940000
 137.8029408 121.4979408  62.0150000 137.8179408 121.3079408  62.9530000
 137.9959408 120.6579408  61.5970000 141.2849408 141.4409408  63.2030000
 142.1909408 141.6019408  63.4660000 140.9289408 142.3109408  63.0260000
 144.8339408 138.1349408  75.5300000 145.1179408 137.2749408  75.8380000
 144.2629408 138.4619408  76.2250000 145.9399408 143.0769408  70.1740000
 145.0409408 142.8989408  70.4490000 145.8779408 143.8789408  69.6550000
 120.5509408 143.0329408  68.3860000 120.1859408 143.4379408  67.6000000
 119.8569408 143.1109408  69.0410000 139.0939408 145.2559408  77.6310000
 138.8449408 145.5209408  78.5160000 138.5189408 144.5169408  77.4310000
 144.6889408 146.4959408  83.9890000 145.4609408 146.4079408  83.4300000
 144.0209408 145.9579408  83.5630000 139.7889408 147.3129408  83.2930000
 140.5389408 147.1429408  82.7230000 139.6029408 148.2449408  83.1720000
 146.0789408 148.6559408  65.3270000 146.5179408 148.9459408  66.1270000
 146.5309408 147.8469408  65.0860000 141.9989408 147.5469408  61.0180000
 142.9239408 147.6119408  60.7810000 141.7279408 146.6889408  60.6910000
 137.6129408 140.7449408  63.2240000 137.4149408 139.8939408  62.8320000
 137.7729408 141.3209408  62.4770000 148.7029408 143.2359408  80.3090000
 149.5569408 143.6369408  80.1500000 148.0819408 143.8059408  79.8540000
 139.1839408 142.3919408  79.3730000 138.8759408 142.0519408  80.2130000
 138.3959408 142.4469408  78.8330000 142.4529408 142.8319408  84.3870000
 143.2899408 143.2969408  84.4070000 141.9209408 143.3219408  83.7600000
 149.3329408 140.1069408  69.6110000 150.1389408 140.5079408  69.2850000
 148.7129408 140.1949408  68.8870000 149.7389408 121.2499408  82.7270000
 149.9719408 120.5979408  82.0660000 148.7969408 121.1349408  82.8560000
 146.4519408 138.2429408  83.9800000 146.5979408 139.0739408  83.5290000
 145.5169408 138.0689408  83.8690000 122.8429408 145.7119408  83.1490000
 123.7689408 145.4969408  83.0340000 122.8479408 146.5679408  83.5780000
 148.0669408 135.0089408  80.1910000 148.0739408 135.9439408  79.9830000
 147.1889408 134.8459408  80.5340000 149.9059408 148.0329408  81.8660000
 149.3759408 148.3819408  82.5830000 150.0419408 147.1129408  82.0930000
 140.8229408 140.4389408  84.5460000 141.4419408 141.1659408  84.6110000
 140.8099408 140.2179408  83.6140000 123.7959408 122.6399408  61.5360000
 123.1589408 123.0979408  60.9870000 123.2689408 122.0539408  62.0780000
 144.2699408 149.2149408  84.6630000 144.2869408 148.9489408  85.5820000
 144.4699408 148.4149408  84.1780000 140.7379408 123.9019408  80.2470000
 140.8629408 123.9519408  79.3000000 141.6089408 124.0529408  80.6130000
 149.0199408 148.8129408  84.3330000 149.8619408 149.1639408  84.6250000
 148.8459408 148.0819408  84.9260000 146.1579408 146.4039408  63.9090000
 145.6669408 147.2129408  64.0520000 145.8099408 146.0549408  63.0890000
 137.0399408 148.4119408  84.8180000 137.5809408 148.5059408  85.6020000
 137.1749408 147.5059408  84.5410000 143.6199408 144.9529408  82.0760000
 142.8519408 144.5989408  81.6270000 144.1499408 145.3379408  81.3780000
 141.2529408 143.5169408  80.7880000 140.5179408 143.0819408  80.3570000
 140.8559408 143.9929408  81.5170000 123.1729408 149.6979408  83.8650000
 122.8949408 149.4999408  82.9710000 123.6089408 150.5479408  83.7990000
 144.4219408 129.4159408  80.1160000 145.2529408 129.6309408  80.5400000
 143.7539408 129.7569408  80.7110000 122.7039408 141.1609408  60.5350000
 121.8629408 141.6189408  60.5440000 122.8899408 141.0209408  59.6060000
 138.5739408 146.5729408  79.9790000 139.3969408 147.0059408  80.2050000
 137.9349408 146.9379408  80.5900000 143.9579408 121.6669408  83.3620000
 143.0839408 121.9459408  83.6370000 144.0009408 120.7409408  83.6010000
 141.0189408 141.9559408  77.3460000 140.6409408 142.0609408  78.2200000
 141.4569408 142.7889408  77.1720000 149.3579408 126.4659408  81.7420000
 148.9689408 126.1709408  80.9190000 149.0259408 125.8529408  82.3980000
 125.0389408 140.2599408  83.3180000 125.4329408 140.8059408  83.9980000
 124.2329408 139.9279408  83.7140000 142.3159408 120.6029408  60.0200000
 142.8489408 120.3259408  60.7650000 142.9519408 120.8169408  59.3370000
 122.0639408 122.4419408  79.6400000 122.0359408 123.1009408  78.9460000
 121.3919408 121.8059408  79.3950000 136.0279408 149.2599408  78.5900000
 135.0909408 149.1729408  78.4130000 136.1359408 148.9249408  79.4800000
 140.3859408 144.2079408  83.2040000 140.0829408 145.1069408  83.3300000
 139.8389408 143.6859408  83.7910000 120.8689408 126.2169408  60.9050000
 121.1979408 126.6709408  60.1290000 121.6129408 126.1979408  61.5060000
 130.0009408 146.2329408  81.9690000 130.8279408 145.7619408  82.0740000
 130.2609408 147.1449408  81.8330000 133.1139408 149.2469408  78.1040000
 133.4209408 148.6579408  77.4150000 132.3449408 149.6749408  77.7280000
 110.0029408  69.2039408  23.4090000  37.4129408  86.2019408  50.0570000
  43.4409408 136.1729408  38.5040000  70.2109408 148.4339408  71.9620000
 148.4819408 100.9349408  39.6410000 133.5109408 147.9189408  45.3630000
 117.1529408 103.0869408  76.5300000  43.9419408 117.7469408  41.2050000
  97.6489408 137.3009408  42.5020000 144.8209408  67.4299408  68.6100000
  67.2109408  38.0059408  35.3860000  99.9729408  61.6209408   9.1660000
  94.3649408  82.5619408  10.9050000 119.2179408 113.7659408  35.8380000
  90.8689408 126.2169408   0.9050000 126.0519408  96.0389408  72.9900000
 109.9319408 143.5469408   5.4520000 149.2179408 101.7099408  26.2810000
 147.3199408  48.8899408  31.5420000  79.7779408  53.9979408  13.5600000
  38.3729408  53.4639408  73.1860000  64.0379408  87.2559408   9.9530000
 113.3719408  89.3539408  16.9710000  54.3849408  69.4109408  77.3650000
  74.6579408  91.6439408  84.3280000  72.1909408  33.0269408  36.6490000
  42.8559408  32.0519408  69.6080000  35.8949408 109.3489408  70.4970000
 122.6959408 124.0899408  81.8710000 144.5049408 123.7859408   8.3370000
  49.3769408  37.5459408  42.7920000  71.7279408 140.3879408  51.2710000
  96.1759408  33.6459408  23.8610000  88.2209408 143.3229408  74.8680000
  43.1469408  42.3189408  57.0580000  62.5169408  33.7909408  28.9940000
  58.8189408 118.9629408  49.5480000  78.1619408  71.4479408  78.1310000
  99.0859408  61.1759408   1.1750000 120.9209408 149.9589408   9.9480000
  65.2889408  46.5969408  61.2440000  38.7329408  85.2859408  62.7840000
  44.4529408  50.9099408  63.7780000 104.5349408  33.3569408  28.7370000
  35.8949408  79.3489408  70.4970000 144.5889408  72.8039408  48.0590000
 129.8979408 118.3239408  77.5680000 124.4319408  58.7859408  26.2340000
  79.6399408 137.0629408  51.6660000  87.9949408  61.5439408  69.2960000
  94.3649408  52.5619408  70.9050000 123.7859408  33.1389408  35.5410000
  38.0329408 119.1679408  40.5370000  37.4669408  69.5539408  26.4890000
 140.8229408  50.4389408  84.5460000  96.4959408 108.9039408   2.3800000
 127.8019408  46.5439408  67.0640000  38.5919408 140.0079408  71.6570000
  78.5739408  56.5729408  19.9790000  67.8239408 129.7049408  31.9020000
  97.8009408  47.6069408  56.9660000  93.3079408 142.3489408  74.1740000
  36.0659408 123.5049408  33.3350000  69.4209408  81.4549408   7.9740000
  41.3659408  80.8169408  12.9800000 101.8849408 131.9679408  12.0810000
 130.5079408 127.1349408  80.9140000  54.9759408  91.0289408  80.1130000
 144.1119408  81.8259408  33.7350000  53.3409408 115.3679408  26.2690000
  68.3729408 143.4639408  73.1860000  42.8319408  66.0959408  25.8560000
  38.0449408  48.2839408  17.2700000 132.0799408  32.2879408  55.6550000
  92.1229408  82.1309408  17.8600000 143.5929408 140.4459408  66.1030000
  83.8419408  37.9109408  71.1330000 123.1979408 105.2869408   7.9950000
  77.9739408  70.1959408   4.3400000  31.4129408 116.7549408  60.3960000
  56.2609408 140.5759408  76.5330000  52.0739408  69.3869408  29.4840000
 147.2379408  64.9699408  68.0610000 118.9339408 119.9049408  57.3680000
 121.7749408 120.6259408  28.9360000  88.0719408 105.0429408  14.1250000
  73.6209408  75.0579408  11.2560000 102.2699408  46.4249408  28.7760000
 133.9679408 113.1959408  42.7510000 101.0189408  32.1809408  78.1460000
  83.7039408 107.7479408  70.5130000  31.6809408  88.4499408   7.5820000
  72.8559408  62.0519408  69.6080000  91.7099408  34.5589408  17.3620000
  72.6309408  43.1459408  74.3340000  56.2609408 140.5759408  16.5330000
  36.1979408  88.7859408  67.3920000  35.3919408 129.8369408  51.5440000
 129.5459408  44.8449408  57.9910000  85.4639408  55.1709408   8.5830000
 128.5139408 108.9249408   4.6940000 144.6629408  79.5749408  12.4850000
  66.8749408  56.9259408   9.7580000 133.6759408 102.0399408   8.3110000
 141.4969408  47.6769408   8.9910000  66.0659408  63.5049408   3.3350000
  57.3199408 138.8899408  61.5420000  91.4539408 149.7109408  15.8930000
  92.0539408 102.5049408  81.6720000  63.1369408  75.9089408  17.4420000
 115.3029408 116.0099408  11.7730000  46.6539408  69.5689408  37.1000000
 122.7639408 130.3209408  15.9390000 125.5019408  30.1759408  50.8970000
  57.6299408 118.3429408  67.5860000 105.6899408  48.6069408  34.5490000
 123.8559408  58.2669408  66.1100000 126.1329408  53.5059408  20.1000000
  72.2769408  39.0759408  56.9600000 144.2559408  83.5429408  48.3680000
  54.5779408  86.1839408  79.7680000 135.4369408  83.2539408  20.0090000
  32.9999408  53.7209408  64.9930000  36.4319408  39.2409408   9.6680000
 107.1799408  54.4859408  11.5940000  30.9759408 133.9229408  56.7960000
  71.6979408  80.0789408  59.7730000 142.1589408  41.9809408   8.6940000
 102.8559408  62.0519408  69.6080000  48.4169408  44.7709408  20.7260000
  98.4839408 102.6569408  72.7750000 124.6779408  52.4899408  46.5850000
 124.8689408 142.0059408   4.4930000  42.6159408  32.7419408  32.6460000
  92.6749408 138.7829408  10.9760000  54.5209408  77.0009408  22.3890000
 130.8659408  48.4719408   2.7640000 109.9319408  53.5469408   5.4520000
 120.9209408 149.9589408  69.9480000 139.9039408  60.2909408  26.3150000
 116.4009408  70.1289408  59.6700000  92.3889408  80.7699408   3.8460000
 149.4079408 140.4649408  42.4830000 115.2969408  65.6169408  19.7390000
  34.4319408 118.7859408  26.2340000  70.5329408 124.8369408  41.0850000
  45.4449408 115.1009408  14.0140000  88.2209408  83.3229408  74.8680000
  56.9689408  56.1229408  82.1750000  40.2849408  99.8869408  12.5980000
 105.0069408  37.1169408  58.0480000  87.8639408 107.4319408   9.3610000
  50.1629408 123.2489408   7.1740000  83.6379408  59.1839408  57.3740000
  57.4739408  68.2959408  67.3770000  96.0819408  41.7559408  33.1260000
  67.1999408  32.1849408  19.7970000  44.0369408  99.3019408  70.0320000
  72.6159408  52.0489408  24.5270000  32.4759408  43.4329408  71.5170000
  71.4439408  45.8639408  53.9440000  74.7979408  41.2589408  80.4950000
  93.7859408  63.1389408  65.5410000 107.6079408 141.4719408  51.4500000
  32.9149408  76.4549408  14.3630000 125.6149408  43.6859408  68.9500000
  65.7419408  71.5499408  72.2860000  65.7979408 111.3969408   6.7650000
  54.2559408 113.5429408  18.3680000 134.3059408 148.7819408   7.3720000
  39.0229408  70.0999408  83.4030000 140.3289408  84.1079408   2.8240000
 105.4369408  53.2539408  20.0090000 133.5109408  57.9189408  15.3630000
 140.0859408 123.0319408  31.4180000  67.0619408 111.4499408   9.2770000
  70.9059408 142.2719408  31.9450000  36.9049408 119.6589408  84.4020000
  44.3059408 148.7819408  37.3720000 127.9939408  51.3219408  74.6600000
  78.2589408 132.5979408   7.4360000  37.6779408  45.6369408  48.2270000
  78.4169408 134.7709408  80.7260000 143.2419408 113.1659408  70.4920000
  51.2289408 110.5009408  74.9470000 133.4439408  90.5639408  65.1250000
 129.2759408 146.4629408  14.7030000 123.1369408 105.9089408  77.4420000
 112.2569408 132.3619408  11.4830000  91.1839408  53.8679408  62.2820000
  68.5139408 138.9249408  34.6940000 125.0389408 110.2599408  83.3180000
  49.0939408  55.2559408  77.6310000 124.8129408 140.6049408  80.3340000
 114.5209408 137.0009408  82.3890000  44.7979408 131.2589408  80.4950000
  39.7219408 148.0699408  68.6160000  97.3569408 134.9479408  44.1060000
  37.1999408  62.1849408  49.7970000 148.8019408  96.7519408  15.1170000
  74.4529408  50.9099408  63.7780000
 119.9837633 119.9837633 119.9837633  60.0000000  60.0000000  90.0000000
