%VERSION  VERSION_STAMP = V0001.000  DATE = 04/10/26  02:27:18
%FLAG TITLE
%FORMAT(20a4)
LIG 
%FLAG POINTERS
%FORMAT(10I8)
      51       5      31      19      74      19     119      28       0       0
     272       1      19      19      28       7      13      20       6       0
       0       0       0       0       0       0       0       0      51       0
       0
%FLAG ATOM_NAME
%FORMAT(20a4)
C   O   C1  O1  C2  C3  C4  C5  C6  C7  C8  C9  C10 C11 C12 C13 C14 C15 C16 C17 
H   H1  H2  H3  H4  H5  H6  H7  H8  H9  H10 H11 H12 H13 H14 H15 H16 H17 H18 H19 
H20 H21 H22 H23 H24 H25 H26 H27 H28 H29 H30 
%FLAG CHARGE
%FORMAT(5E16.8)
  1.65385595E+01 -1.55581997E+01 -3.57885972E+00 -1.55581997E+01 -8.45514720E-01
 -1.73840742E+00 -1.33751682E+00 -1.46507292E+00 -1.41040602E+00 -9.51204060E-01
 -2.79165636E+00 -3.52054836E+00 -3.28001400E-01 -2.90099016E+00 -3.41121456E+00
 -8.78314860E-01 -1.37396142E+00 -1.42862832E+00 -1.46507292E+00 -1.66005153E+00
  3.68090460E-01  3.68090460E-01  2.22312060E-01  2.22312060E-01  1.13342706E+00
  1.13342706E+00  4.77424260E-01  4.77424260E-01  7.50758760E-01  7.50758760E-01
  6.59647260E-01  6.59647260E-01  8.05425660E-01  8.05425660E-01  2.33245440E+00
  2.13200910E+00  1.02409326E+00  1.02409326E+00  2.18667600E+00  2.11378680E+00
  8.96537160E-01  8.96537160E-01  6.96091860E-01  6.96091860E-01  7.05203010E-01
  7.05203010E-01  7.32536460E-01  7.32536460E-01  5.53356584E-01  5.53356584E-01
  5.53356584E-01
%FLAG ATOMIC_NUMBER
%FORMAT(10I8)
       6       8       6       8       6       6       6       6       6       6
       6       6       6       6       6       6       6       6       6       6
       1       1       1       1       1       1       1       1       1       1
       1       1       1       1       1       1       1       1       1       1
       1       1       1       1       1       1       1       1       1       1
       1
%FLAG MASS
%FORMAT(5E16.8)
  1.20100000E+01  1.60000000E+01  1.20100000E+01  1.60000000E+01  1.20100000E+01
  1.20100000E+01  1.20100000E+01  1.20100000E+01  1.20100000E+01  1.20100000E+01
  1.20100000E+01  1.20100000E+01  1.20100000E+01  1.20100000E+01  1.20100000E+01
  1.20100000E+01  1.20100000E+01  1.20100000E+01  1.20100000E+01  1.20100000E+01
  1.00800000E+00  1.00800000E+00  1.00800000E+00  1.00800000E+00  1.00800000E+00
  1.00800000E+00  1.00800000E+00  1.00800000E+00  1.00800000E+00  1.00800000E+00
  1.00800000E+00  1.00800000E+00  1.00800000E+00  1.00800000E+00  1.00800000E+00
  1.00800000E+00  1.00800000E+00  1.00800000E+00  1.00800000E+00  1.00800000E+00
  1.00800000E+00  1.00800000E+00  1.00800000E+00  1.00800000E+00  1.00800000E+00
  1.00800000E+00  1.00800000E+00  1.00800000E+00  1.00800000E+00  1.00800000E+00
  1.00800000E+00
%FLAG ATOM_TYPE_INDEX
%FORMAT(10I8)
       1       2       3       2       3       3       3       3       3       3
       1       1       3       1       1       3       3       3       3       3
       4       4       4       4       4       4       4       4       4       4
       4       4       4       4       5       5       4       4       5       5
       4       4       4       4       4       4       4       4       4       4
       4
%FLAG NUMBER_EXCLUDED_ATOMS
%FORMAT(10I8)
       9       5      10       3      11      13      13      13      12      11
      11      10       9      10      11      11      12      13      10       7
       3       2       3       2       3       2       3       2       3       2
       3       2       2       1       1       2       2       1       1       2
       3       2       3       2       3       2       4       3       2       1
       1
%FLAG NONBONDED_PARM_INDEX
%FORMAT(10I8)
       1       2       4       7      11       2       3       5       8      12
       4       5       6       9      13       7       8       9      10      14
      11      12      13      14      15
%FLAG RESIDUE_LABEL
%FORMAT(20a4)
LIG 
%FLAG RESIDUE_POINTER
%FORMAT(10I8)
       1
%FLAG BOND_FORCE_CONSTANT
%FORMAT(5E16.8)
  5.90600000E+02  2.34850000E+02  2.28890000E+02  3.45250000E+02  2.48400000E+02
  4.36000000E+02  3.57290000E+02
%FLAG BOND_EQUIL_VALUE
%FORMAT(5E16.8)
  1.21900000E+00  1.52700000E+00  1.53540000E+00  1.09620000E+00  1.50880000E+00
  1.33790000E+00  1.08820000E+00
%FLAG ANGLE_FORCE_CONSTANT
%FORMAT(5E16.8)
  6.03600000E+01  4.36300000E+01  7.64500000E+01  1.04940000E+02  5.98700000E+01
  4.32700000E+01  6.04000000E+01  6.08800000E+01  4.29500000E+01  4.37600000E+01
  4.63700000E+01  6.11400000E+01  3.58000000E+01
%FLAG ANGLE_EQUIL_VALUE
%FORMAT(5E16.8)
  1.94482122E+00  1.90153704E+00  2.14501057E+00  2.27172153E+00  1.96576518E+00
  1.91427794E+00  1.96489251E+00  2.18078984E+00  2.00800217E+00  1.93120765E+00
  2.10120279E+00  1.95215161E+00  1.88024401E+00
%FLAG DIHEDRAL_FORCE_CONSTANT
%FORMAT(5E16.8)
  4.60000000E-01  4.00000000E-02  0.00000000E+00  1.55555556E-01  6.80000000E-01
  2.00000000E-01  4.40000000E-01  4.03000000E+00  3.66000000E+00  5.20000000E-01
  1.30000000E-01  0.00000000E+00  1.50000000E-01  5.78000000E+00  1.33000000E+00
  6.65000000E+00  1.14000000E+00  2.60000000E-01  1.20000000E-01  1.10000000E+00
%FLAG DIHEDRAL_PERIODICITY
%FORMAT(5E16.8)
  1.00000000E+00  2.00000000E+00  3.00000000E+00  3.00000000E+00  1.00000000E+00
  2.00000000E+00  3.00000000E+00  1.00000000E+00  2.00000000E+00  3.00000000E+00
  3.00000000E+00  2.00000000E+00  1.00000000E+00  2.00000000E+00  3.00000000E+00
  2.00000000E+00  1.00000000E+00  3.00000000E+00  3.00000000E+00  2.00000000E+00
%FLAG DIHEDRAL_PHASE
%FORMAT(5E16.8)
  3.14159400E+00  0.00000000E+00  0.00000000E+00  0.00000000E+00  0.00000000E+00
  3.14159400E+00  3.14159400E+00  0.00000000E+00  3.14159400E+00  0.00000000E+00
  0.00000000E+00  0.00000000E+00  0.00000000E+00  3.14159400E+00  3.14159400E+00
  3.14159400E+00  0.00000000E+00  3.14159400E+00  0.00000000E+00  3.14159400E+00
%FLAG SCEE_SCALE_FACTOR
%FORMAT(5E16.8)
  1.20000000E+00  1.20000000E+00  1.20000000E+00  1.20000000E+00  1.20000000E+00
  1.20000000E+00  1.20000000E+00  1.20000000E+00  1.20000000E+00  1.20000000E+00
  1.20000000E+00  1.20000000E+00  1.20000000E+00  1.20000000E+00  1.20000000E+00
  1.20000000E+00  1.20000000E+00  1.20000000E+00  1.20000000E+00  0.00000000E+00
%FLAG SCNB_SCALE_FACTOR
%FORMAT(5E16.8)
  2.00000000E+00  2.00000000E+00  2.00000000E+00  2.00000000E+00  2.00000000E+00
  2.00000000E+00  2.00000000E+00  2.00000000E+00  2.00000000E+00  2.00000000E+00
  2.00000000E+00  2.00000000E+00  2.00000000E+00  2.00000000E+00  2.00000000E+00
  2.00000000E+00  2.00000000E+00  2.00000000E+00  2.00000000E+00  0.00000000E+00
%FLAG SOLTY
%FORMAT(5E16.8)
  0.00000000E+00  0.00000000E+00  0.00000000E+00  0.00000000E+00  0.00000000E+00
  0.00000000E+00
%FLAG LENNARD_JONES_ACOEF
%FORMAT(5E16.8)
  6.96551276E+05  5.17507491E+05  3.76435470E+05  8.43969952E+05  6.30925504E+05
  1.02073671E+06  8.12662403E+04  5.68021765E+04  1.00235148E+05  7.94617769E+03
  7.52549148E+04  5.27277400E+04  9.27554496E+04  7.41026906E+03  6.90855956E+03
%FLAG LENNARD_JONES_BCOEF
%FORMAT(5E16.8)
  5.24668528E+02  4.98871431E+02  4.69350655E+02  5.90251928E+02  5.62969425E+02
  6.63431737E+02  1.21392023E+02  1.11953944E+02  1.37787728E+02  2.57122925E+01
  1.09570372E+02  1.01173582E+02  1.24325688E+02  2.32899892E+01  2.10929191E+01
%FLAG BONDS_INC_HYDROGEN
%FORMAT(10I8)
       6      60       4       6      63       4      12      66       4      12
      69       4      15      72       4      15      75       4      18      78
       4      18      81       4      21      84       4      21      87       4
      24      90       4      24      93       4      27      96       4      27
      99       4      30     102       7      33     105       7      36     108
       4      36     111       4      39     114       7      42     117       7
      45     120       4      45     123       4      48     126       4      48
     129       4      51     132       4      51     135       4      54     138
       4      54     141       4      57     144       4      57     147       4
      57     150       4
%FLAG BONDS_WITHOUT_HYDROGEN
%FORMAT(10I8)
       0       3       1       0       6       2       0       9       1       6
      12       3      12      15       3      15      18       3      18      21
       3      21      24       3      24      27       3      27      30       5
      30      33       6      33      36       5      36      39       5      39
      42       6      42      45       5      45      48       3      48      51
       3      51      54       3      54      57       3
%FLAG ANGLES_INC_HYDROGEN
%FORMAT(10I8)
       0       6      60       2       0       6      63       2       6      12
      66       6       6      12      69       6      12       6      60       6
      12       6      63       6      12      15      72       6      12      15
      75       6      15      12      66       6      15      12      69       6
      15      18      78       6      15      18      81       6      18      15
      72       6      18      15      75       6      18      21      84       6
      18      21      87       6      21      18      78       6      21      18
      81       6      21      24      90       6      21      24      93       6
      24      21      84       6      24      21      87       6      24      27
      96       6      24      27      99       6      27      24      90       6
      27      24      93       6      27      30     102       9      30      27
      96      10      30      27      99      10      30      33     105      11
      33      30     102      11      33      36     108      10      33      36
     111      10      36      33     105       9      36      39     114       9
      39      36     108      10      39      36     111      10      39      42
     117      11      42      39     114      11      42      45     120      10
      42      45     123      10      45      42     117       9      45      48
     126       6      45      48     129       6      48      45     120       6
      48      45     123       6      48      51     132       6      48      51
     135       6      51      48     126       6      51      48     129       6
      51      54     138       6      51      54     141       6      54      51
     132       6      54      51     135       6      54      57     144       6
      54      57     147       6      54      57     150       6      57      54
     138       6      57      54     141       6      60       6      63      13
      66      12      69      13      72      15      75      13      78      18
      81      13      84      21      87      13      90      24      93      13
      96      27      99      13     108      36     111      13     120      45
     123      13     126      48     129      13     132      51     135      13
     138      54     141      13     144      57     147      13     144      57
     150      13     147      57     150      13
%FLAG ANGLES_WITHOUT_HYDROGEN
%FORMAT(10I8)
       0       6      12       1       3       0       6       3       3       0
       9       4       6       0       9       3       6      12      15       5
      12      15      18       5      15      18      21       5      18      21
      24       5      21      24      27       5      24      27      30       7
      27      30      33       8      30      33      36       8      33      36
      39      12      36      39      42       8      39      42      45       8
      42      45      48       7      45      48      51       5      48      51
      54       5      51      54      57       5
%FLAG DIHEDRALS_INC_HYDROGEN
%FORMAT(10I8)
       0       6      12      66       4       0       6      12      69       4
       3       0       6      60       8       3       0      -6      60       9
       3       0       6      63       8       3       0      -6      63       9
       6      12      15      72      11       6      12      15      75      11
       9       0       6      60       8       9       0      -6      60       9
       9       0       6      63       8       9       0      -6      63       9
      12      15      18      78      11      12      15      18      81      11
      15      12       6      60      11      15      12       6      63      11
      15      18      21      84      11      15      18      21      87      11
      18      15      12      66      11      18      15      12      69      11
      18      21      24      90      11      18      21      24      93      11
      21      18      15      72      11      21      18      15      75      11
      21      24      27      96      11      21      24      27      99      11
      24      21      18      78      11      24      21      18      81      11
      24      27      30     102      12      27      24      21      84      11
      27      24      21      87      11      27      30      33     105      16
      30      27      24      90       4      30      27      24      93       4
      30      33      36     108      18      30      33      36     111      18
      33      30      27      96      18      33      30      27      99      18
      33      36      39     114      12      36      33      30     102      16
      36      39      42     117      16      39      36      33     105      12
      39      42      45     120      18      39      42      45     123      18
      42      39      36     108      18      42      39      36     111      18
      42      45      48     126       4      42      45      48     129       4
      45      42      39     114      16      45      48      51     132      11
      45      48      51     135      11      48      45      42     117      12
      48      51      54     138      11      48      51      54     141      11
      51      48      45     120      11      51      48      45     123      11
      51      54      57     144      11      51      54      57     147      11
      51      54      57     150      11      54      51      48     126      11
      54      51      48     129      11      57      54      51     132      11
      57      54      51     135      11      60       6      12      66      19
      60       6      12      69      19      63       6      12      66      19
      63       6      12      69      19      66      12      15      72      19
      66      12      15      75      19      69      12      15      72      19
      69      12      15      75      19      72      15      18      78      19
      72      15      18      81      19      75      15      18      78      19
      75      15      18      81      19      78      18      21      84      19
      78      18      21      87      19      81      18      21      84      19
      81      18      21      87      19      84      21      24      90      19
      84      21      24      93      19      87      21      24      90      19
      87      21      24      93      19      90      24      27      96      19
      90      24      27      99      19      93      24      27      96      19
      93      24      27      99      19      96      27      30     102      12
      99      27      30     102      12     102      30      33     105      16
     105      33      36     108      12     105      33      36     111      12
     108      36      39     114      12     111      36      39     114      12
     114      39      42     117      16     117      42      45     120      12
     117      42      45     123      12     120      45      48     126      19
     120      45      48     129      19     123      45      48     126      19
     123      45      48     129      19     126      48      51     132      19
     126      48      51     135      19     129      48      51     132      19
     129      48      51     135      19     132      51      54     138      19
     132      51      54     141      19     135      51      54     138      19
     135      51      54     141      19     138      54      57     144      19
     138      54      57     147      19     138      54      57     150      19
     141      54      57     144      19     141      54      57     147      19
     141      54      57     150      19      33      27     -30    -102      20
      30      36     -33    -105      20      42      36     -39    -114      20
      39      45     -42    -117      20
%FLAG DIHEDRALS_WITHOUT_HYDROGEN
%FORMAT(10I8)
       0       6      12      15       1       0       6     -12      15       2
       0       6     -12      15       3       3       0       6      12       5
       3       0      -6      12       6       3       0      -6      12       7
       6      12      15      18      10       9       0       6      12       5
       9       0      -6      12       6       9       0      -6      12       7
      12      15      18      21      10      15      18      21      24      10
      18      21      24      27      10      21      24      27      30       4
      24      27      30      33      12      27      30      33      36      13
      27      30     -33      36      14      27      30     -33      36      15
      30      33      36      39      17      33      36      39      42      17
      36      39      42      45      13      36      39     -42      45      14
      36      39     -42      45      15      39      42      45      48      12
      42      45      48      51       4      45      48      51      54      10
      48      51      54      57      10       9       0      -3      -6      20
%FLAG EXCLUDED_ATOMS_LIST
%FORMAT(10I8)
       2       3       4       5       6      21      22      23      24       3
       4       5      21      22       4       5       6       7      21      22
      23      24      25      26       5      21      22       6       7       8
      21      22      23      24      25      26      27      28       7       8
       9      21      22      23      24      25      26      27      28      29
      30       8       9      10      23      24      25      26      27      28
      29      30      31      32       9      10      11      25      26      27
      28      29      30      31      32      33      34      10      11      12
      27      28      29      30      31      32      33      34      35      11
      12      13      29      30      31      32      33      34      35      36
      12      13      14      31      32      33      34      35      36      37
      38      13      14      15      33      34      35      36      37      38
      39      14      15      16      35      36      37      38      39      40
      15      16      17      36      37      38      39      40      41      42
      16      17      18      37      38      39      40      41      42      43
      44      17      18      19      39      40      41      42      43      44
      45      46      18      19      20      40      41      42      43      44
      45      46      47      48      19      20      41      42      43      44
      45      46      47      48      49      50      51      20      43      44
      45      46      47      48      49      50      51      45      46      47
      48      49      50      51      22      23      24      23      24      24
      25      26      25      26      26      27      28      27      28      28
      29      30      29      30      30      31      32      31      32      32
      33      34      33      34      34      35      35      36      37      38
      38      39      39      40      41      42      42      43      44      43
      44      44      45      46      45      46      46      47      48      47
      48      48      49      50      51      49      50      51      50      51
      51       0
%FLAG HBOND_ACOEF
%FORMAT(5E16.8)

%FLAG HBOND_BCOEF
%FORMAT(5E16.8)

%FLAG HBCUT
%FORMAT(5E16.8)

%FLAG AMBER_ATOM_TYPE
%FORMAT(20a4)
c   o   c3  o   c3  c3  c3  c3  c3  c3  c2  c2  c3  c2  c2  c3  c3  c3  c3  c3  
hc  hc  hc  hc  hc  hc  hc  hc  hc  hc  hc  hc  hc  hc  ha  ha  hc  hc  ha  ha  
hc  hc  hc  hc  hc  hc  hc  hc  hc  hc  hc  
%FLAG TREE_CHAIN_CLASSIFICATION
%FORMAT(20a4)
BLA BLA BLA BLA BLA BLA BLA BLA BLA BLA BLA BLA BLA BLA BLA BLA BLA BLA BLA BLA 
BLA BLA BLA BLA BLA BLA BLA BLA BLA BLA BLA BLA BLA BLA BLA BLA BLA BLA BLA BLA 
BLA BLA BLA BLA BLA BLA BLA BLA BLA BLA BLA 
%FLAG JOIN_ARRAY
%FORMAT(10I8)
       0       0       0       0       0       0       0       0       0       0
       0       0       0       0       0       0       0       0       0       0
       0       0       0       0       0       0       0       0       0       0
       0       0       0       0       0       0       0       0       0       0
       0       0       0       0       0       0       0       0       0       0
       0
%FLAG IROTAT
%FORMAT(10I8)
       0       0       0       0       0       0       0       0       0       0
       0       0       0       0       0       0       0       0       0       0
       0       0       0       0       0       0       0       0       0       0
       0       0       0       0       0       0       0       0       0       0
       0       0       0       0       0       0       0       0       0       0
       0
%FLAG RADIUS_SET
%FORMAT(1a80)
modified Bondi radii (mbondi)                                                   
%FLAG RADII
%FORMAT(5E16.8)
  1.70000000E+00  1.50000000E+00  1.70000000E+00  1.50000000E+00  1.70000000E+00
  1.70000000E+00  1.70000000E+00  1.70000000E+00  1.70000000E+00  1.70000000E+00
  1.70000000E+00  1.70000000E+00  1.70000000E+00  1.70000000E+00  1.70000000E+00
  1.70000000E+00  1.70000000E+00  1.70000000E+00  1.70000000E+00  1.70000000E+00
  1.30000000E+00  1.30000000E+00  1.30000000E+00  1.30000000E+00  1.30000000E+00
  1.30000000E+00  1.30000000E+00  1.30000000E+00  1.30000000E+00  1.30000000E+00
  1.30000000E+00  1.30000000E+00  1.30000000E+00  1.30000000E+00  1.30000000E+00
  1.30000000E+00  1.30000000E+00  1.30000000E+00  1.30000000E+00  1.30000000E+00
  1.30000000E+00  1.30000000E+00  1.30000000E+00  1.30000000E+00  1.30000000E+00
  1.30000000E+00  1.30000000E+00  1.30000000E+00  1.30000000E+00  1.30000000E+00
  1.30000000E+00
%FLAG SCREEN
%FORMAT(5E16.8)
  7.20000000E-01  8.50000000E-01  7.20000000E-01  8.50000000E-01  7.20000000E-01
  7.20000000E-01  7.20000000E-01  7.20000000E-01  7.20000000E-01  7.20000000E-01
  7.20000000E-01  7.20000000E-01  7.20000000E-01  7.20000000E-01  7.20000000E-01
  7.20000000E-01  7.20000000E-01  7.20000000E-01  7.20000000E-01  7.20000000E-01
  8.50000000E-01  8.50000000E-01  8.50000000E-01  8.50000000E-01  8.50000000E-01
  8.50000000E-01  8.50000000E-01  8.50000000E-01  8.50000000E-01  8.50000000E-01
  8.50000000E-01  8.50000000E-01  8.50000000E-01  8.50000000E-01  8.50000000E-01
  8.50000000E-01  8.50000000E-01  8.50000000E-01  8.50000000E-01  8.50000000E-01
  8.50000000E-01  8.50000000E-01  8.50000000E-01  8.50000000E-01  8.50000000E-01
  8.50000000E-01  8.50000000E-01  8.50000000E-01  8.50000000E-01  8.50000000E-01
  8.50000000E-01
%FLAG IPOL
%FORMAT(1I8)
       0
